 Gaussian 16, Revision A.03,
 Gaussian 16:  ES64L-G16RevA.03 25-Dec-2016

 ----------------------------------------------------------------------
 #t B3LYP/6-31G(d,p) # SCRF=(Solvent=water) # Gfinput IOP(6/7=3) Pop=hi
 rshfeld Density Test # Units(Ang,Deg)
 ----------------------------------------------------------------------
 ---------------------------------------
 w-appa-1p-nh2-1dp-cooh_opt_freq_g09.log
 ---------------------------------------
 Symbolic Z-matrix:
 Charge =  1 Multiplicity = 2

                         Standard orientation:
 ---------------------------------------------------------------------
 Center     Atomic      Atomic             Coordinates (Angstroms)
 Number     Number       Type             X           Y           Z
 ---------------------------------------------------------------------
      1          6           0       -1.009201    1.642610   -0.276021
      2          6           0       -2.354221    1.786689    0.066469
      3          6           0       -3.159540    0.664109    0.258539
      4          6           0       -2.570880   -0.584621    0.093979
      5          6           0       -1.236450   -0.751381   -0.249081
      6          6           0       -0.424650    0.378040   -0.437941
      7          1           0       -0.398321    2.528700   -0.422881
      8          1           0       -2.782621    2.776499    0.184279
      9          1           0       -4.206660    0.763178    0.523769
     10          1           0       -0.817159   -1.746280   -0.373001
     11          6           0        1.041570    0.221991   -0.760281
     12          1           0        1.212860   -0.676069   -1.360041
     13          1           0        1.372329    1.072211   -1.367971
     14          6           0        1.928540    0.118971    0.493099
     15          1           0        1.886259    1.044571    1.077969
     16          1           0        1.535940   -0.672839    1.148079
     17          7           0       -3.413839   -1.793222    0.282689
     18          1           0       -3.875409   -1.797622    1.198689
     19          1           0       -4.151379   -1.860812   -0.427521
     20          6           0        3.418870   -0.223858    0.183739
     21          8           0        4.252610    0.143952    1.053229
     22          8           0        3.644330   -0.861698   -0.880371
     23          1           0       -2.858719   -2.652311    0.221969
 ---------------------------------------------------------------------

 SCF Done:  E(UB3LYP) =  -554.587134587     A.U. after   29 cycles

 The electronic state is 2-A.
 Alpha  occ. eigenvalues --  -19.26107 -19.14727 -14.48999 -10.34300 -10.27802
 Alpha  occ. eigenvalues --  -10.23315 -10.23266 -10.22956 -10.22866 -10.21955
 Alpha  occ. eigenvalues --  -10.21720 -10.21326  -1.13737  -1.03551  -1.01421
 Alpha  occ. eigenvalues --   -0.88997  -0.82256  -0.77840  -0.76907  -0.68845
 Alpha  occ. eigenvalues --   -0.64993  -0.63284  -0.60355  -0.58495  -0.57049
 Alpha  occ. eigenvalues --   -0.55410  -0.51897  -0.51464  -0.50176  -0.48730
 Alpha  occ. eigenvalues --   -0.48095  -0.45641  -0.44368  -0.43675  -0.41567
 Alpha  occ. eigenvalues --   -0.39250  -0.38660  -0.38278  -0.36273  -0.35923
 Alpha  occ. eigenvalues --   -0.32554  -0.28603  -0.28447  -0.27432
 Alpha virt. eigenvalues --   -0.04020  -0.03530  -0.00112   0.02854   0.06688
 Alpha virt. eigenvalues --    0.08374   0.08618   0.10466   0.11964   0.12796
 Alpha virt. eigenvalues --    0.14459   0.15207   0.16128   0.17432   0.18634

  Beta  occ. eigenvalues --  -19.24081 -19.14574 -14.48998 -10.34365 -10.27814
  Beta  occ. eigenvalues --  -10.23231 -10.23079 -10.22928 -10.22825 -10.21967
  Beta  occ. eigenvalues --  -10.21695 -10.21285  -1.10128  -1.03552  -0.99858
  Beta  occ. eigenvalues --   -0.88914  -0.81947  -0.77799  -0.76408  -0.68236
  Beta  occ. eigenvalues --   -0.64944  -0.63052  -0.60358  -0.58451  -0.55523
  Beta  occ. eigenvalues --   -0.55099  -0.51506  -0.50107  -0.49428  -0.47666
  Beta  occ. eigenvalues --   -0.45784  -0.45566  -0.43928  -0.42966  -0.40905
  Beta  occ. eigenvalues --   -0.38723  -0.38236  -0.37454  -0.36034  -0.31742
  Beta  occ. eigenvalues --   -0.28504  -0.28130  -0.27217
  Beta virt. eigenvalues --   -0.21396  -0.03826  -0.03393   0.00187   0.02854
  Beta virt. eigenvalues --    0.06707   0.08393   0.08659   0.10553   0.12010
  Beta virt. eigenvalues --    0.12876   0.14608   0.15262   0.16196   0.17491

 Mulliken charges and spin densities:
               1          2
     1  C   -0.094014   0.019605
     2  C   -0.100835  -0.011348
     3  C   -0.066010   0.031891
     4  C    0.152076  -0.010603
     5  C   -0.093957   0.020829
     6  C    0.084497   0.016241
     7  H    0.128129  -0.000693
     8  H    0.137039   0.000513
     9  H    0.152134  -0.001258
    10  H    0.148027  -0.000646
    11  C   -0.242258   0.018731
    12  H    0.146638  -0.000728
    13  H    0.140694  -0.000834
    14  C   -0.264802   0.123760
    15  H    0.157495  -0.004682
    16  H    0.178365  -0.001169
    17  N   -0.568017   0.000513
    18  H    0.391702  -0.000105
    19  H    0.393456  -0.000201
    20  C    0.614018  -0.030760
    21  O   -0.257892   0.779295
    22  O   -0.522393   0.051687
    23  H    0.385910  -0.000039
 Sum of Mulliken charges =   1.00000   1.00000

 Dipole moment (field-independent basis, Debye):
    X=            -19.1482    Y=             -5.4204    Z=              2.8576  Tot=             20.1047
 There are a total of      518884 grid points.
 ElSum from          density=       87.0000024214
 ElSum from atomic densities=       88.0000006884
 Hirshfeld populations at iteration   1 (CA, CB, DipXYZ):
               1          2          3          4          5
     1  C    3.015468   3.001506   0.035791   0.054592  -0.010915
     2  C    3.006075   3.008280  -0.032730   0.069161   0.008958
     3  C    3.019762   2.999862  -0.082966   0.009433   0.020273
     4  C    2.968911   2.970274  -0.104490  -0.141175   0.022356
     5  C    3.019354   3.004734   0.031591  -0.061650  -0.012052

 Normal termination of Gaussian 16 at Tue Nov 30 02:24:12 2021.
