 Gaussian 16, Revision A.03,
 Gaussian 16:  ES64L-G16RevA.03 25-Dec-2016

 ----------------------------------------------------------------------
 #t B3LYP/6-31G(d,p) # SCRF=(Solvent=water) # Gfinput IOP(6/7=3) Pop=hi
 rshfeld Density Test # Units(Ang,Deg)
 ----------------------------------------------------------------------
 ---------------------------------------
 w-appa-1p-nh2-1dp-cooh_opt_freq_g09.log
 ---------------------------------------
 Symbolic Z-matrix:
 Charge =  0 Multiplicity = 1

                         Standard orientation:
 ---------------------------------------------------------------------
 Center     Atomic      Atomic             Coordinates (Angstroms)
 Number     Number       Type             X           Y           Z
 ---------------------------------------------------------------------
      1          6           0       -1.009201    1.642610   -0.276021
      2          6           0       -2.354221    1.786689    0.066469
      3          6           0       -3.159540    0.664109    0.258539
      4          6           0       -2.570880   -0.584621    0.093979
      5          6           0       -1.236450   -0.751381   -0.249081
      6          6           0       -0.424650    0.378040   -0.437941
      7          1           0       -0.398321    2.528700   -0.422881
      8          1           0       -2.782621    2.776499    0.184279
      9          1           0       -4.206660    0.763178    0.523769
     10          1           0       -0.817159   -1.746280   -0.373001
     11          6           0        1.041570    0.221991   -0.760281
     12          1           0        1.212860   -0.676069   -1.360041
     13          1           0        1.372329    1.072211   -1.367971
     14          6           0        1.928540    0.118971    0.493099
     15          1           0        1.886259    1.044571    1.077969
     16          1           0        1.535940   -0.672839    1.148079
     17          7           0       -3.413839   -1.793222    0.282689
     18          1           0       -3.875409   -1.797622    1.198689
     19          1           0       -4.151379   -1.860812   -0.427521
     20          6           0        3.418870   -0.223858    0.183739
     21          8           0        4.252610    0.143952    1.053229
     22          8           0        3.644330   -0.861698   -0.880371
     23          1           0       -2.858719   -2.652311    0.221969
 ---------------------------------------------------------------------

 SCF Done:  E(RB3LYP) =  -554.790958741     A.U. after   13 cycles

 The electronic state is 1-A.
 Alpha  occ. eigenvalues --  -19.04767 -19.04513 -14.48465 -10.26715 -10.23397
 Alpha  occ. eigenvalues --  -10.21506 -10.21469 -10.21254 -10.20895 -10.20224
 Alpha  occ. eigenvalues --  -10.17824 -10.16141  -1.02972  -0.97779  -0.89078
 Alpha  occ. eigenvalues --   -0.87539  -0.79376  -0.76656  -0.72959  -0.65086
 Alpha  occ. eigenvalues --   -0.63788  -0.60847  -0.59869  -0.57586  -0.53841
 Alpha  occ. eigenvalues --   -0.50384  -0.47717  -0.46961  -0.44523  -0.42700
 Alpha  occ. eigenvalues --   -0.42409  -0.40091  -0.38542  -0.37480  -0.37263
 Alpha  occ. eigenvalues --   -0.35463  -0.34806  -0.33583  -0.31338  -0.27432
 Alpha  occ. eigenvalues --   -0.26205  -0.20944  -0.19612  -0.19032
 Alpha virt. eigenvalues --   -0.02683  -0.02145   0.03165   0.07461   0.08944
 Alpha virt. eigenvalues --    0.09184   0.09378   0.12410   0.13355   0.14267
 Alpha virt. eigenvalues --    0.16189   0.16775   0.17702   0.18825   0.19928

 Mulliken charges:
               1
     1  C   -0.109196
     2  C   -0.104787
     3  C   -0.082646
     4  C    0.148508
     5  C   -0.111134
     6  C    0.095473
     7  H    0.112013
     8  H    0.124577
     9  H    0.138398
    10  H    0.132388
    11  C   -0.232727
    12  H    0.106507
    13  H    0.099656
    14  C   -0.247788
    15  H    0.080061
    16  H    0.093883
    17  N   -0.568673
    18  H    0.388322
    19  H    0.389933
    20  C    0.499693
    21  O   -0.675374
    22  O   -0.660036
    23  H    0.382950
 Sum of Mulliken charges =  -0.00000

 Dipole moment (field-independent basis, Debye):
    X=            -33.3636    Y=             -5.3726    Z=              0.8389  Tot=             33.8038
 There are a total of      518884 grid points.
 ElSum from          density=       88.0000026206
 ElSum from atomic densities=       88.0000006884
 Hirshfeld populations at iteration   1 (CA, CB, DipXYZ):
               1          2          3          4          5
     1  C    3.015880   3.015880   0.035894   0.051104  -0.008715
     2  C    3.012523   3.012523  -0.031531   0.067613   0.008681
     3  C    3.019430   3.019430  -0.077803   0.008085   0.019400
     4  C    2.973922   2.973922  -0.104838  -0.142886   0.022596
     5  C    3.018882   3.018882   0.031944  -0.058967  -0.009570

 Normal termination of Gaussian 16 at Tue Nov 30 02:24:53 2021.
