 Gaussian 16, Revision A.03,
 Gaussian 16:  ES64L-G16RevA.03 25-Dec-2016

 ----------------------------------------------------------------------
 #p B3LYP/6-31G(d,p) scrf=(solvent=water) # SCRF=(Solvent=Water) # Gfin
 put IOP(6/7=3) Pop=chelp Density Test
 ----------------------------------------------------------------------

 ---------------------------------------
 w-appa-1p-nh2-1dp-cooh_opt_freq_g09.log
 ---------------------------------------
 Symbolic Z-matrix:
 Charge =  0 Multiplicity = 1

                         Standard orientation:
 ---------------------------------------------------------------------
 Center     Atomic      Atomic             Coordinates (Angstroms)
 Number     Number       Type             X           Y           Z
 ---------------------------------------------------------------------
      1          6           0       -1.009201    1.642610   -0.276021
      2          6           0       -2.354221    1.786689    0.066469
      3          6           0       -3.159540    0.664109    0.258539
      4          6           0       -2.570880   -0.584621    0.093979
      5          6           0       -1.236450   -0.751381   -0.249081
      6          6           0       -0.424650    0.378040   -0.437941
      7          1           0       -0.398321    2.528700   -0.422881
      8          1           0       -2.782621    2.776499    0.184279
      9          1           0       -4.206660    0.763178    0.523769
     10          1           0       -0.817159   -1.746280   -0.373001
     11          6           0        1.041570    0.221991   -0.760281
     12          1           0        1.212860   -0.676069   -1.360041
     13          1           0        1.372329    1.072211   -1.367971
     14          6           0        1.928540    0.118971    0.493099
     15          1           0        1.886259    1.044571    1.077969
     16          1           0        1.535940   -0.672839    1.148079
     17          7           0       -3.413839   -1.793222    0.282689
     18          1           0       -3.875409   -1.797622    1.198689
     19          1           0       -4.151379   -1.860812   -0.427521
     20          6           0        3.418870   -0.223858    0.183739
     21          8           0        4.252610    0.143952    1.053229
     22          8           0        3.644330   -0.861698   -0.880371
     23          1           0       -2.858719   -2.652311    0.221969
 ---------------------------------------------------------------------

 SCF Done:  E(RB3LYP) =  -554.688963657     A.U. after   20 cycles

 The electronic state is 1-A.
 Alpha  occ. eigenvalues --  -18.97326 -18.97289 -14.57181 -10.30795 -10.24965
 Alpha  occ. eigenvalues --  -10.24637 -10.23846 -10.22987 -10.22327 -10.16422
 Alpha  occ. eigenvalues --  -10.16234 -10.12766  -1.11347  -0.90757  -0.90248
 Alpha  occ. eigenvalues --   -0.81594  -0.81260  -0.80314  -0.73013  -0.69251
 Alpha  occ. eigenvalues --   -0.68831  -0.68169  -0.63510  -0.60639  -0.55939
 Alpha  occ. eigenvalues --   -0.53913  -0.50409  -0.47743  -0.45167  -0.42794
 Alpha  occ. eigenvalues --   -0.40911  -0.40790  -0.39042  -0.36558  -0.34727
 Alpha  occ. eigenvalues --   -0.31927  -0.30551  -0.30117  -0.28574  -0.26691
 Alpha  occ. eigenvalues --   -0.25120  -0.12853  -0.12448  -0.11211
 Alpha virt. eigenvalues --   -0.07092  -0.06424  -0.04851  -0.01052   0.00644
 Alpha virt. eigenvalues --    0.03396   0.10058   0.10870   0.11552   0.12613
 Alpha virt. eigenvalues --    0.14699   0.15787   0.17995   0.18938   0.19719

 Mulliken charges:
               1
     1  C   -0.091301
     2  C   -0.090016
     3  C   -0.107783
     4  C    0.130239
     5  C   -0.111174
     6  C    0.106171
     7  H    0.120878
     8  H    0.112884
     9  H    0.088125
    10  H    0.109932
    11  C   -0.237482
    12  H    0.120843
    13  H    0.107496
    14  C   -0.240446
    15  H    0.083878
    16  H    0.067961
    17  N   -0.589078
    18  H    0.359955
    19  H    0.358333
    20  C    0.543374
    21  O   -0.596539
    22  O   -0.606898
    23  H    0.360648
 Sum of Mulliken charges =  -0.00000

 Dipole moment (field-independent basis, Debye):
    X=            -26.8244    Y=             -4.3316    Z=              0.5984  Tot=             27.1785
 Quadrupole moment (field-independent basis, Debye-Ang):
   XX=            -88.1733   YY=            -49.9567   ZZ=            -75.2180
   XY=             28.4311   XZ=             -7.7572   YZ=             -5.2772

 ESP charges:
               1
     1  C   -0.087879
     2  C   -0.118784
     3  C   -0.112453
     4  C   -0.023646
     5  C   -0.228863
     6  C    0.133058
     7  H    0.099166
     8  H    0.120357
     9  H    0.103143
    10  H    0.162907
    11  C    0.206863
    12  H   -0.083304
    13  H   -0.044611
    14  C   -0.056054
    15  H   -0.029767
    16  H   -0.025718
    17  N   -0.143971
    18  H    0.283132
    19  H    0.257578
    20  C    0.655816
    21  O   -0.680981
    22  O   -0.655978
    23  H    0.269988
 Sum of ESP charges =   0.00000

 Normal termination of Gaussian 16 at Fri Jan  7 14:13:37 2022.
