 Gaussian 16, Revision A.03,
 Gaussian 16:  ES64L-G16RevA.03 25-Dec-2016

 ----------------------------------------------------------------------
 #t B3LYP/6-31G(d,p) # SCRF=(Solvent=water) # Gfinput IOP(6/7=3) Pop=hi
 rshfeld Density Test # Units(Ang,Deg)
 ----------------------------------------------------------------------
 ---------------------------------------
 w-appa-1p-nh2-1dp-cooh_opt_freq_g09.log
 ---------------------------------------
 Symbolic Z-matrix:
 Charge = -1 Multiplicity = 2

                         Standard orientation:
 ---------------------------------------------------------------------
 Center     Atomic      Atomic             Coordinates (Angstroms)
 Number     Number       Type             X           Y           Z
 ---------------------------------------------------------------------
      1          6           0       -1.009201    1.642610   -0.276021
      2          6           0       -2.354221    1.786689    0.066469
      3          6           0       -3.159540    0.664109    0.258539
      4          6           0       -2.570880   -0.584621    0.093979
      5          6           0       -1.236450   -0.751381   -0.249081
      6          6           0       -0.424650    0.378040   -0.437941
      7          1           0       -0.398321    2.528700   -0.422881
      8          1           0       -2.782621    2.776499    0.184279
      9          1           0       -4.206660    0.763178    0.523769
     10          1           0       -0.817159   -1.746280   -0.373001
     11          6           0        1.041570    0.221991   -0.760281
     12          1           0        1.212860   -0.676069   -1.360041
     13          1           0        1.372329    1.072211   -1.367971
     14          6           0        1.928540    0.118971    0.493099
     15          1           0        1.886259    1.044571    1.077969
     16          1           0        1.535940   -0.672839    1.148079
     17          7           0       -3.413839   -1.793222    0.282689
     18          1           0       -3.875409   -1.797622    1.198689
     19          1           0       -4.151379   -1.860812   -0.427521
     20          6           0        3.418870   -0.223858    0.183739
     21          8           0        4.252610    0.143952    1.053229
     22          8           0        3.644330   -0.861698   -0.880371
     23          1           0       -2.858719   -2.652311    0.221969
 ---------------------------------------------------------------------

 SCF Done:  E(UB3LYP) =  -554.813819093     A.U. after   39 cycles

 The electronic state is 2-A.
 Alpha  occ. eigenvalues --  -19.03853 -19.03598 -14.45644 -10.22249 -10.20711
 Alpha  occ. eigenvalues --  -10.14751 -10.14218 -10.14216 -10.14191 -10.13368
 Alpha  occ. eigenvalues --  -10.12815 -10.11769  -0.99888  -0.96875  -0.88187
 Alpha  occ. eigenvalues --   -0.81186  -0.74695  -0.70594  -0.68802  -0.61202
 Alpha  occ. eigenvalues --   -0.58631  -0.57495  -0.57293  -0.53147  -0.48837
 Alpha  occ. eigenvalues --   -0.45450  -0.45129  -0.42768  -0.39413  -0.39061
 Alpha  occ. eigenvalues --   -0.38049  -0.37210  -0.35401  -0.34309  -0.33448
 Alpha  occ. eigenvalues --   -0.31590  -0.31096  -0.30271  -0.29305  -0.22566
 Alpha  occ. eigenvalues --   -0.21793  -0.20179  -0.18456  -0.18050  -0.02391
 Alpha virt. eigenvalues --    0.02511   0.04618   0.09994   0.10260   0.11313
 Alpha virt. eigenvalues --    0.11655   0.14358   0.15890   0.16645   0.18945
 Alpha virt. eigenvalues --    0.19198   0.20391   0.21692   0.22663   0.24011

  Beta  occ. eigenvalues --  -19.03850 -19.03592 -14.45636 -10.22242 -10.20787
  Beta  occ. eigenvalues --  -10.14778 -10.14318 -10.14153 -10.14024 -10.13043
  Beta  occ. eigenvalues --  -10.12330 -10.11184  -0.99876  -0.96864  -0.88176
  Beta  occ. eigenvalues --   -0.80541  -0.74341  -0.69928  -0.68282  -0.60867
  Beta  occ. eigenvalues --   -0.58393  -0.57371  -0.57282  -0.52389  -0.48617
  Beta  occ. eigenvalues --   -0.45250  -0.44882  -0.42606  -0.39288  -0.38864
  Beta  occ. eigenvalues --   -0.37730  -0.36973  -0.35278  -0.34079  -0.32666
  Beta  occ. eigenvalues --   -0.31099  -0.30564  -0.30101  -0.29152  -0.21068
  Beta  occ. eigenvalues --   -0.20170  -0.19409  -0.18280  -0.17560
  Beta virt. eigenvalues --    0.02940   0.04631   0.05780   0.10038   0.10339
  Beta virt. eigenvalues --    0.11646   0.11798   0.14438   0.15970   0.17103
  Beta virt. eigenvalues --    0.19290   0.20188   0.21394   0.22033   0.22878

 Mulliken charges and spin densities:
               1          2
     1  C   -0.141641  -0.090000
     2  C   -0.218960   0.451140
     3  C   -0.160529   0.135304
     4  C    0.125164  -0.059052
     5  C   -0.243155   0.379286
     6  C    0.053937   0.223897
     7  H    0.031407   0.002048
     8  H    0.015656  -0.025075
     9  H    0.049563  -0.009267
    10  H    0.031767  -0.020956
    11  C   -0.214027  -0.018906
    12  H    0.062066   0.009101
    13  H    0.057945   0.001928
    14  C   -0.232234   0.013446
    15  H    0.055467   0.000333
    16  H    0.072105  -0.001134
    17  N   -0.568528   0.001461
    18  H    0.365040   0.001080
    19  H    0.367665  -0.000414
    20  C    0.483664   0.003518
    21  O   -0.686546   0.001573
    22  O   -0.668568   0.000566
    23  H    0.362743   0.000123
 Sum of Mulliken charges =  -1.00000   1.00000

 Dipole moment (field-independent basis, Debye):
    X=            -25.8071    Y=             -7.6436    Z=              1.1915  Tot=             26.9416
 There are a total of      518884 grid points.
 ElSum from          density=       89.0000025021
 ElSum from atomic densities=       88.0000006884
 Hirshfeld populations at iteration   1 (CA, CB, DipXYZ):
               1          2          3          4          5
     1  C    3.060532   3.037701   0.025371   0.045854  -0.002977
     2  C    3.232900   2.943646  -0.015970  -0.000189   0.003973
     3  C    3.137884   3.005885  -0.040547   0.024882   0.009372
     4  C    3.016344   2.988920  -0.099217  -0.156230   0.019734
     5  C    3.208971   2.962218   0.024681   0.004674  -0.005365

 Normal termination of Gaussian 16 at Tue Nov 30 02:22:16 2021.
