 Gaussian 16, Revision A.03,
 Gaussian 16:  ES64L-G16RevA.03 25-Dec-2016

 ----------------------------------------------------------------------
 #t B3LYP/6-31G(d,p) # SCRF=(Solvent=water) # Gfinput IOP(6/7=3) Pop=hi
 rshfeld Density Test # Units(Ang,Deg)
 ----------------------------------------------------------------------
 ----------------------------------
 w-mpa-2dp-cooh-sh_opt_freq_g09.log
 ----------------------------------
 Symbolic Z-matrix:
 Charge = -1 Multiplicity = 2

                         Standard orientation:
 ---------------------------------------------------------------------
 Center     Atomic      Atomic             Coordinates (Angstroms)
 Number     Number       Type             X           Y           Z
 ---------------------------------------------------------------------
      1          6           0       -1.706650   -0.015273   -0.034091
      2          6           0       -0.246530   -0.521332   -0.224311
      3          1           0       -0.149289   -1.507962    0.245239
      4          1           0       -0.091469   -0.684702   -1.302231
      5          6           0        0.837310    0.430099    0.287869
      6          1           0        0.660149    1.410669   -0.164141
      7          1           0        0.703350    0.569879    1.369299
      8          8           0       -2.584679   -0.900294    0.172349
      9         16           0        2.591500   -0.111390   -0.038121
     10          8           0       -1.901761    1.229467   -0.136731
 ---------------------------------------------------------------------

 SCF Done:  E(UB3LYP) =  -665.470689709     A.U. after   49 cycles

 The electronic state is 2-A.
 Alpha  occ. eigenvalues --  -88.88486 -19.05235 -19.05232 -10.23951 -10.21074
 Alpha  occ. eigenvalues --  -10.16474  -7.94485  -5.91542  -5.90636  -5.89795
 Alpha  occ. eigenvalues --   -0.98160  -0.89346  -0.78017  -0.68513  -0.59019
 Alpha  occ. eigenvalues --   -0.47212  -0.45104  -0.40134  -0.38854  -0.37422
 Alpha  occ. eigenvalues --   -0.34517  -0.34127  -0.31982  -0.27791  -0.24553
 Alpha  occ. eigenvalues --   -0.21316  -0.20080  -0.19553
 Alpha virt. eigenvalues --    0.04192   0.09131   0.13225   0.15285   0.16146
 Alpha virt. eigenvalues --    0.20459   0.23449   0.27171   0.31881   0.34856
 Alpha virt. eigenvalues --    0.36302   0.37005   0.39973   0.46001   0.53527

  Beta  occ. eigenvalues --  -88.87975 -19.05201 -19.05173 -10.23956 -10.21088
  Beta  occ. eigenvalues --  -10.16468  -7.93982  -5.90326  -5.89882  -5.89493
  Beta  occ. eigenvalues --   -0.98076  -0.89232  -0.77158  -0.66636  -0.57563
  Beta  occ. eigenvalues --   -0.47097  -0.44577  -0.39896  -0.38627  -0.36993
  Beta  occ. eigenvalues --   -0.34175  -0.33573  -0.31756  -0.23396  -0.21255
  Beta  occ. eigenvalues --   -0.19781  -0.19186
  Beta virt. eigenvalues --   -0.15023   0.05117   0.09267   0.13395   0.15491
  Beta virt. eigenvalues --    0.16205   0.20677   0.23636   0.27282   0.32736
  Beta virt. eigenvalues --    0.35295   0.37421   0.39763   0.40442   0.46385

 Mulliken charges and spin densities:
               1          2
     1  C    0.492702  -0.003840
     2  C   -0.235419   0.003849
     3  H    0.084931  -0.000326
     4  H    0.103085   0.000497
     5  C   -0.337579  -0.029477
     6  H    0.146959   0.014808
     7  H    0.152956   0.031491
     8  O   -0.658338   0.024098
     9  S   -0.096347   0.946153
    10  O   -0.652950   0.012747
 Sum of Mulliken charges =  -1.00000   1.00000

 Dipole moment (field-independent basis, Debye):
    X=              7.9765    Y=             -0.3809    Z=              0.1577  Tot=              7.9871
 There are a total of      222172 grid points.
 ElSum from          density=       54.9999993518
 ElSum from atomic densities=       53.9999989009
 Hirshfeld populations at iteration   1 (CA, CB, DipXYZ):
               1          2          3          4          5
     1  C    2.946491   2.946089   0.081292  -0.022589  -0.006009
     2  C    3.045341   3.039552  -0.015291   0.038280   0.009607
     3  H    0.494382   0.493986   0.006035  -0.116610   0.058514
     4  H    0.490020   0.487708   0.006087  -0.017032  -0.137820
     5  C    3.042614   3.010343  -0.007351  -0.019479  -0.001058

 Normal termination of Gaussian 16 at Tue Nov 30 13:24:01 2021.
