 Gaussian 16, Revision A.03,
 Gaussian 16:  ES64L-G16RevA.03 25-Dec-2016

 ----------------------------------------------------------------------
 #t B3LYP/6-31G(d,p) # SCRF=(Solvent=water) # Gfinput IOP(6/7=3) Pop=hi
 rshfeld Density Test # Units(Ang,Deg)
 ----------------------------------------------------------------------
 ----------------------------------
 w-mpa-2dp-cooh-sh_opt_freq_g09.log
 ----------------------------------
 Symbolic Z-matrix:
 Charge = -2 Multiplicity = 1

                         Standard orientation:
 ---------------------------------------------------------------------
 Center     Atomic      Atomic             Coordinates (Angstroms)
 Number     Number       Type             X           Y           Z
 ---------------------------------------------------------------------
      1          6           0       -1.706650   -0.015273   -0.034091
      2          6           0       -0.246530   -0.521332   -0.224311
      3          1           0       -0.149289   -1.507962    0.245239
      4          1           0       -0.091469   -0.684702   -1.302231
      5          6           0        0.837310    0.430099    0.287869
      6          1           0        0.660149    1.410669   -0.164141
      7          1           0        0.703350    0.569879    1.369299
      8          8           0       -2.584679   -0.900294    0.172349
      9         16           0        2.591500   -0.111390   -0.038121
     10          8           0       -1.901761    1.229467   -0.136731
 ---------------------------------------------------------------------

 SCF Done:  E(RB3LYP) =  -665.623755073     A.U. after   13 cycles

 The electronic state is 1-A.
 Alpha  occ. eigenvalues --  -88.76197 -19.03565 -19.03448 -10.22124 -10.16070
 Alpha  occ. eigenvalues --  -10.13936  -7.82059  -5.78650  -5.77886  -5.77882
 Alpha  occ. eigenvalues --   -0.96519  -0.87700  -0.72660  -0.61659  -0.52287
 Alpha  occ. eigenvalues --   -0.44908  -0.41457  -0.37808  -0.36056  -0.34600
 Alpha  occ. eigenvalues --   -0.31521  -0.29738  -0.27188  -0.19905  -0.18908
 Alpha  occ. eigenvalues --   -0.17898  -0.15458  -0.15210
 Alpha virt. eigenvalues --    0.09149   0.11786   0.16096   0.17482   0.18114
 Alpha virt. eigenvalues --    0.22750   0.26858   0.29811   0.35784   0.39052
 Alpha virt. eigenvalues --    0.40655   0.43499   0.44472   0.49613   0.57212

 Mulliken charges:
               1
     1  C    0.468629
     2  C   -0.213064
     3  H    0.049553
     4  H    0.067199
     5  C   -0.231676
     6  H    0.076384
     7  H    0.067779
     8  O   -0.685230
     9  S   -0.927494
    10  O   -0.672080
 Sum of Mulliken charges =  -2.00000

 Dipole moment (field-independent basis, Debye):
    X=             -2.1085    Y=             -0.0560    Z=              0.1341  Tot=              2.1135
 There are a total of      222172 grid points.
 ElSum from          density=       55.9999994281
 ElSum from atomic densities=       53.9999989009
 Hirshfeld populations at iteration   1 (CA, CB, DipXYZ):
               1          2          3          4          5
     1  C    2.952697   2.952697   0.079355  -0.018647  -0.004752
     2  C    3.050006   3.050006  -0.031645   0.042212   0.013910
     3  H    0.502691   0.502691  -0.003203  -0.103190   0.054547
     4  H    0.498619   0.498619  -0.010944  -0.012403  -0.121741
     5  C    3.051572   3.051572  -0.060716  -0.023536  -0.005737

 Normal termination of Gaussian 16 at Tue Nov 30 13:24:12 2021.
