 Gaussian 16, Revision A.03,
 Gaussian 16:  ES64L-G16RevA.03 25-Dec-2016

 ----------------------------------------------------------------------
 #p opt=tight freq=raman b3lyp/6-31g(d,p) scrf=(solvent=water) pop=full
  # density gfinput iop(6/7=3) test units=(ang,deg)
 ----------------------------------------------------------------------

 -------------------
 Title Card Required
 -------------------
 Symbolic Z-matrix:
 Charge = -2 Multiplicity = 1

 SCF Done:  E(RB3LYP) =  -665.512206484     A.U. after   14 cycles
 SCF Done:  E(RB3LYP) =  -665.574116523     A.U. after   12 cycles
 SCF Done:  E(RB3LYP) =  -665.598318188     A.U. after   13 cycles
 SCF Done:  E(RB3LYP) =  -665.615512691     A.U. after   13 cycles
 SCF Done:  E(RB3LYP) =  -665.602375638     A.U. after   14 cycles
 SCF Done:  E(RB3LYP) =  -665.623542622     A.U. after   11 cycles
 SCF Done:  E(RB3LYP) =  -665.623734528     A.U. after   11 cycles
 SCF Done:  E(RB3LYP) =  -665.623744430     A.U. after    9 cycles
 SCF Done:  E(RB3LYP) =  -665.623746725     A.U. after    9 cycles
 SCF Done:  E(RB3LYP) =  -665.623748344     A.U. after    8 cycles
 SCF Done:  E(RB3LYP) =  -665.623751776     A.U. after    9 cycles
 SCF Done:  E(RB3LYP) =  -665.623753874     A.U. after    9 cycles
 SCF Done:  E(RB3LYP) =  -665.623754419     A.U. after    8 cycles
 SCF Done:  E(RB3LYP) =  -665.623755002     A.U. after    8 cycles
 SCF Done:  E(RB3LYP) =  -665.623755077     A.U. after    7 cycles
 SCF Done:  E(RB3LYP) =  -665.623755088     A.U. after    5 cycles
 SCF Done:  E(RB3LYP) =  -665.623755123     A.U. after    5 cycles
 SCF Done:  E(RB3LYP) =  -665.623755073     A.U. after    6 cycles
 Optimization completed.
    -- Stationary point found.
 Normal termination of Gaussian 16 at Tue Nov 30 13:14:27 2021.

 ----------------------------------------------------------------------
 #P Geom=AllCheck Guess=TCheck SCRF=Check Test GenChk RB3LYP/6-31G(d,p)
  Freq
 ----------------------------------------------------------------------

 Structure from the checkpoint file:  "/home/rheinheimer/Programs/gaussian/scrgauss/Gau-543784.chk"
 -------------------
 Title Card Required
 -------------------
 Charge = -2 Multiplicity = 1

                         Standard orientation:
 ---------------------------------------------------------------------
 Center     Atomic      Atomic             Coordinates (Angstroms)
 Number     Number       Type             X           Y           Z
 ---------------------------------------------------------------------
      1          6           0       -1.706651   -0.015273   -0.034091
      2          6           0       -0.246533   -0.521334   -0.224310
      3          1           0       -0.149286   -1.507964    0.245244
      4          1           0       -0.091470   -0.684699   -1.302228
      5          6           0        0.837314    0.430099    0.287869
      6          1           0        0.660151    1.410675   -0.164140
      7          1           0        0.703355    0.569876    1.369302
      8          8           0       -2.584681   -0.900292    0.172353
      9         16           0        2.591498   -0.111391   -0.038124
     10          8           0       -1.901758    1.229468   -0.136730
 ---------------------------------------------------------------------

 SCF Done:  E(RB3LYP) =  -665.623755073     A.U. after    1 cycles

 The electronic state is 1-A.
 Alpha  occ. eigenvalues --  -88.76197 -19.03565 -19.03448 -10.22124 -10.16070
 Alpha  occ. eigenvalues --  -10.13936  -7.82059  -5.78650  -5.77886  -5.77882
 Alpha  occ. eigenvalues --   -0.96519  -0.87700  -0.72660  -0.61659  -0.52287
 Alpha  occ. eigenvalues --   -0.44908  -0.41457  -0.37808  -0.36056  -0.34600
 Alpha  occ. eigenvalues --   -0.31521  -0.29738  -0.27188  -0.19905  -0.18908
 Alpha  occ. eigenvalues --   -0.17898  -0.15458  -0.15210
 Alpha virt. eigenvalues --    0.09149   0.11786   0.16096   0.17482   0.18113
 Alpha virt. eigenvalues --    0.22750   0.26858   0.29811   0.35784   0.39052
 Alpha virt. eigenvalues --    0.40655   0.43499   0.44472   0.49613   0.57212

 Mulliken charges:
               1
     1  C    0.468629
     2  C   -0.213065
     3  H    0.049553
     4  H    0.067200
     5  C   -0.231676
     6  H    0.076382
     7  H    0.067778
     8  O   -0.685230
     9  S   -0.927491
    10  O   -0.672080
 Sum of Mulliken charges =  -2.00000

 Dipole moment (field-independent basis, Debye):
    X=             -2.1084    Y=             -0.0560    Z=              0.1341  Tot=              2.1135
 Quadrupole moment (field-independent basis, Debye-Ang):
   XX=           -112.5356   YY=            -56.9416   ZZ=            -47.9762
   XY=              1.3679   XZ=              1.3715   YZ=              1.1096

  Exact polarizability:  89.787  -0.923  65.260  -3.729  -0.687  50.493
 Approx polarizability:  93.962   0.356  81.599  -5.083  -2.389  57.126

                      1                      2                      3
                      A                      A                      A
 Frequencies --     20.4135               102.5583               180.2406
 Red. masses --      2.6823                 4.0382                 6.8173
 Frc consts  --      0.0007                 0.0250                 0.1305
 IR Inten    --      2.4868                24.4115                21.1212
 Raman Activ --      1.1548                 3.0415                 3.4707

                      4                      5                      6
                      A                      A                      A
 Frequencies --    270.9885               454.3184               605.0081
 Red. masses --     12.4673                 4.1637                 3.0354
 Frc consts  --      0.5394                 0.5064                 0.6546
 IR Inten    --      1.1566                 5.7432                19.6449
 Raman Activ --      8.9776                 3.2410                 6.6314

                      7                      8                      9
                      A                      A                      A
 Frequencies --    662.4750               742.9987               784.1657
 Red. masses --      6.0305                 1.8035                 2.4538
 Frc consts  --      1.5593                 0.5866                 0.8890
 IR Inten    --     63.7336                 3.3429                10.5986
 Raman Activ --     11.6732                20.9436                12.7546

                     10                     11                     12
                      A                      A                      A
 Frequencies --    906.6228               982.5830              1049.3262
 Red. masses --      5.7191                 1.6022                 3.7118
 Frc consts  --      2.7697                 0.9114                 2.4080
 IR Inten    --     52.2734                 4.0920                 4.0168
 Raman Activ --     22.8730                17.0439                 6.7346

                     13                     14                     15
                      A                      A                      A
 Frequencies --   1126.9277              1210.9511              1287.5485
 Red. masses --      1.1984                 1.2522                 1.1847
 Frc consts  --      0.8967                 1.0819                 1.1572
 IR Inten    --      4.2655                33.5763                22.3312
 Raman Activ --      3.1286                 5.0490                26.6939

                     16                     17                     18
                      A                      A                      A
 Frequencies --   1310.4767              1400.5447              1470.6642
 Red. masses --      1.4340                11.6169                 1.0890
 Frc consts  --      1.4510                13.4256                 1.3877
 IR Inten    --     21.5976               411.1369                 8.0048
 Raman Activ --      7.0000                 7.1733                53.2190

                     19                     20                     21
                      A                      A                      A
 Frequencies --   1498.9724              1675.8076              2994.8775
 Red. masses --      1.0924                10.8885                 1.0681
 Frc consts  --      1.4461                18.0163                 5.6444
 IR Inten    --      2.1346               659.4955                24.6008
 Raman Activ --     18.9110                 3.3428               330.5314

                     22                     23                     24
                      A                      A                      A
 Frequencies --   3007.2204              3052.4298              3080.8180
 Red. masses --      1.0680                 1.0915                 1.0967
 Frc consts  --      5.6904                 5.9918                 6.1327
 IR Inten    --    165.2141                45.7135               111.7858
 Raman Activ --    112.5900               264.6602                79.7217

 - Thermochemistry -
 -------------------
 Temperature   298.150 Kelvin.  Pressure   1.00000 Atm.
 Atom     1 has atomic number  6 and mass  12.00000

 Molecular mass:   103.99320 amu.
 Principal axes and moments of inertia in atomic units:
                           1         2         3
     Eigenvalues --   193.658091537.603251687.76518
           X            0.99999   0.00418   0.00231
           Y           -0.00424   0.99967   0.02531
           Z           -0.00221  -0.02532   0.99968
 This molecule is an asymmetric top.
 Rotational symmetry number  1.
 Rotational temperatures (Kelvin)      0.44725     0.05633     0.05132
 Rotational constants (GHZ):           9.31921     1.17374     1.06931
 Zero-point vibrational energy     178715.7 (Joules/Mol)
                                   42.71409 (Kcal/Mol)
 Warning -- explicit consideration of   6 degrees of freedom as
           vibrations may cause significant error
 Vibrational temperatures:     29.37   147.56   259.33   389.89   653.66
          (Kelvin)            870.47   953.15  1069.01  1128.24  1304.43
                             1413.72  1509.75  1621.40  1742.29  1852.50
                             1885.48  2015.07  2115.96  2156.69  2411.11
                             4308.96  4326.72  4391.77  4432.61

 Zero-point correction=                           0.068069 (Hartree/Particle)
 Thermal correction to Energy=                    0.074509
 Thermal correction to Enthalpy=                  0.075454
 Thermal correction to Gibbs Free Energy=         0.035529
 Sum of electronic and zero-point Energies=           -665.555686
 Sum of electronic and thermal Energies=              -665.549246
 Sum of electronic and thermal Enthalpies=            -665.548301
 Sum of electronic and thermal Free Energies=         -665.588226

                     E (Thermal)             CV                S
                      KCal/Mol        Cal/Mol-Kelvin    Cal/Mol-Kelvin
 Total                   46.755             20.461             84.028
 Electronic               0.000              0.000              0.000
 Translational            0.889              2.981             39.835
 Rotational               0.889              2.981             27.710
 Vibrational             44.978             14.499             16.484
 Vibration     1          0.593              1.986              6.594
 Vibration     2          0.605              1.947              3.405
 Vibration     3          0.629              1.867              2.326
 Vibration     4          0.675              1.727              1.590
 Vibration     5          0.813              1.351              0.783
 Vibration     6          0.964              1.021              0.441

 Optimization completed.
    -- Stationary point found.
 Normal termination of Gaussian 16 at Tue Nov 30 13:15:32 2021.
