 Gaussian 16, Revision A.03,
 Gaussian 16:  ES64L-G16RevA.03 25-Dec-2016

 ----------------------------------------------------------------------
 #p B3LYP/6-31G(d,p) scrf=(solvent=water) # SCRF=(Solvent=Water) # Gfin
 put IOP(6/7=3) Pop=chelp Density Test
 ----------------------------------------------------------------------

 ----------------------------------
 w-mpa-2dp-cooh-sh_opt_freq_g09.log
 ----------------------------------
 Symbolic Z-matrix:
 Charge = -2 Multiplicity = 1

                         Standard orientation:
 ---------------------------------------------------------------------
 Center     Atomic      Atomic             Coordinates (Angstroms)
 Number     Number       Type             X           Y           Z
 ---------------------------------------------------------------------
      1          6           0       -1.706650   -0.015273   -0.034091
      2          6           0       -0.246530   -0.521332   -0.224311
      3          1           0       -0.149289   -1.507962    0.245239
      4          1           0       -0.091469   -0.684702   -1.302231
      5          6           0        0.837310    0.430099    0.287869
      6          1           0        0.660149    1.410669   -0.164141
      7          1           0        0.703350    0.569879    1.369299
      8          8           0       -2.584679   -0.900294    0.172349
      9         16           0        2.591500   -0.111390   -0.038121
     10          8           0       -1.901761    1.229467   -0.136731
 ---------------------------------------------------------------------

 SCF Done:  E(RB3LYP) =  -665.309326564     A.U. after   14 cycles

 The electronic state is 1-A.
 Alpha  occ. eigenvalues --  -88.44704 -18.72937 -18.72923  -9.91614  -9.85765
 Alpha  occ. eigenvalues --   -9.83979  -7.50510  -5.47135  -5.46327  -5.46320
 Alpha  occ. eigenvalues --   -0.65914  -0.57104  -0.42280  -0.30997  -0.21364
 Alpha  occ. eigenvalues --   -0.14538  -0.11323  -0.07240  -0.05660  -0.04221
 Alpha  occ. eigenvalues --   -0.01234   0.00411   0.03867   0.10705   0.11794
 Alpha  occ. eigenvalues --    0.12773   0.16341   0.16533
 Alpha virt. eigenvalues --    0.39501   0.42250   0.45840   0.46271   0.47664
 Alpha virt. eigenvalues --    0.52213   0.57350   0.60181   0.66820   0.70208
 Alpha virt. eigenvalues --    0.71315   0.75135   0.75994   0.80414   0.87377

 Mulliken charges:
               1
     1  C    0.469560
     2  C   -0.175351
     3  H    0.024410
     4  H    0.031987
     5  C   -0.192765
     6  H    0.058329
     7  H    0.023196
     8  O   -0.686896
     9  S   -0.888737
    10  O   -0.663733
 Sum of Mulliken charges =  -2.00000

 Dipole moment (field-independent basis, Debye):
    X=             -1.8400    Y=             -0.0015    Z=              0.0540  Tot=              1.8408
 Quadrupole moment (field-independent basis, Debye-Ang):
   XX=           -111.5444   YY=            -57.2204   ZZ=            -48.3885
   XY=              0.9979   XZ=              1.1751   YZ=              0.9618

 ESP charges:
               1
     1  C    0.692004
     2  C    0.192490
     3  H   -0.179084
     4  H   -0.153290
     5  C    0.576492
     6  H   -0.212132
     7  H   -0.222739
     8  O   -0.833304
     9  S   -1.081078
    10  O   -0.779360
 Sum of ESP charges =  -2.00000

 Normal termination of Gaussian 16 at Fri Jan  7 14:34:19 2022.
