 Gaussian 16, Revision A.03,
 Gaussian 16:  ES64L-G16RevA.03 25-Dec-2016

 ----------------------------------------------------------------------
 #t B3LYP/6-31G(d,p) # SCRF=(Solvent=water) # Gfinput IOP(6/7=3) Pop=hi
 rshfeld Density Test # Units(Ang,Deg)
 ----------------------------------------------------------------------
 ----------------------------------
 w-mpa-2dp-cooh-sh_opt_freq_g09.log
 ----------------------------------
 Symbolic Z-matrix:
 Charge = -3 Multiplicity = 2

                         Standard orientation:
 ---------------------------------------------------------------------
 Center     Atomic      Atomic             Coordinates (Angstroms)
 Number     Number       Type             X           Y           Z
 ---------------------------------------------------------------------
      1          6           0       -1.706650   -0.015273   -0.034091
      2          6           0       -0.246530   -0.521332   -0.224311
      3          1           0       -0.149289   -1.507962    0.245239
      4          1           0       -0.091469   -0.684702   -1.302231
      5          6           0        0.837310    0.430099    0.287869
      6          1           0        0.660149    1.410669   -0.164141
      7          1           0        0.703350    0.569879    1.369299
      8          8           0       -2.584679   -0.900294    0.172349
      9         16           0        2.591500   -0.111390   -0.038121
     10          8           0       -1.901761    1.229467   -0.136731
 ---------------------------------------------------------------------

 SCF Done:  E(UB3LYP) =  -665.540281956     A.U. after   19 cycles

 The electronic state is 2-A.
 Alpha  occ. eigenvalues --  -88.72726 -18.99053 -18.99026 -10.16581 -10.09608
 Alpha  occ. eigenvalues --  -10.09540  -7.78175  -5.74713  -5.74098  -5.74093
 Alpha  occ. eigenvalues --   -0.92332  -0.83567  -0.68335  -0.57504  -0.48411
 Alpha  occ. eigenvalues --   -0.40982  -0.37617  -0.33846  -0.32221  -0.30789
 Alpha  occ. eigenvalues --   -0.27610  -0.26093  -0.23410  -0.16720  -0.15177
 Alpha  occ. eigenvalues --   -0.14220  -0.12333  -0.11915   0.07405
 Alpha virt. eigenvalues --    0.13797   0.17908   0.18808   0.20102   0.24898
 Alpha virt. eigenvalues --    0.30156   0.33382   0.38488   0.41445   0.43312
 Alpha virt. eigenvalues --    0.45601   0.46778   0.52511   0.60601   0.61263

  Beta  occ. eigenvalues --  -88.72660 -18.98906 -18.98853 -10.16360 -10.09556
  Beta  occ. eigenvalues --  -10.08832  -7.78098  -5.74545  -5.74048  -5.74040
  Beta  occ. eigenvalues --   -0.91954  -0.83233  -0.67682  -0.56671  -0.47801
  Beta  occ. eigenvalues --   -0.40415  -0.37124  -0.33515  -0.31730  -0.30017
  Beta  occ. eigenvalues --   -0.27186  -0.25427  -0.22086  -0.15697  -0.14866
  Beta  occ. eigenvalues --   -0.13992  -0.11828  -0.11483
  Beta virt. eigenvalues --    0.13288   0.16164   0.19187   0.19899   0.20672
  Beta virt. eigenvalues --    0.25749   0.30759   0.34036   0.38929   0.42080
  Beta virt. eigenvalues --    0.43787   0.46026   0.47153   0.53260   0.61035

 Mulliken charges and spin densities:
               1          2
     1  C    0.381643   0.146574
     2  C   -0.147138   0.002129
     3  H   -0.032284   0.016327
     4  H   -0.124897   0.149978
     5  C   -0.070500   0.086284
     6  H   -0.037235   0.044402
     7  H   -0.106776   0.100352
     8  O   -0.750602   0.042912
     9  S   -1.382174   0.365999
    10  O   -0.730038   0.045042
 Sum of Mulliken charges =  -3.00000   1.00000

 Dipole moment (field-independent basis, Debye):
    X=             -6.0319    Y=              0.1889    Z=              0.2725  Tot=              6.0410
 There are a total of      222172 grid points.
 ElSum from          density=       56.9999992981
 ElSum from atomic densities=       53.9999989009
 Hirshfeld populations at iteration   1 (CA, CB, DipXYZ):
               1          2          3          4          5
     1  C    3.051808   2.933146   0.046711  -0.015827  -0.041234
     2  C    3.117295   3.042549  -0.031630   0.054414   0.022574
     3  H    0.532097   0.514413  -0.015532  -0.079701   0.034445
     4  H    0.587903   0.504857  -0.056627  -0.001214  -0.009067
     5  C    3.184676   3.005735  -0.095756  -0.035286  -0.039217

 Normal termination of Gaussian 16 at Tue Nov 30 13:23:21 2021.
