 Gaussian 16, Revision A.03,
 Gaussian 16:  ES64L-G16RevA.03 25-Dec-2016

 ----------------------------------------------------------------------
 #t B3LYP/6-31G(d,p) # SCRF=(Solvent=water) # Gfinput IOP(6/7=3) Pop=hi
 rshfeld Density Test # Units(Ang,Deg)
 ----------------------------------------------------------------------
 -------------------
 Title Card Required
 -------------------
 Symbolic Z-matrix:
 Charge = -1 Multiplicity = 1

                         Standard orientation:
 ---------------------------------------------------------------------
 Center     Atomic      Atomic             Coordinates (Angstroms)
 Number     Number       Type             X           Y           Z
 ---------------------------------------------------------------------
      1          6           0        1.591729   -0.136351    0.112169
      2          6           0        0.167369   -0.236333    0.601539
      3          1           0       -0.001850   -1.262403    0.935269
      4          1           0        0.026788    0.436547    1.452659
      5          6           0       -0.843001    0.130466   -0.511521
      6          1           0       -0.628802    1.151247   -0.847301
      7          1           0       -0.661151   -0.526993   -1.370551
      8          8           0        2.293460   -1.067060   -0.240331
      9         16           0       -2.605231   -0.006905    0.028819
     10          8           0        2.022628    1.146989    0.049559
     11          1           0        2.923428    1.125960   -0.318141
 ---------------------------------------------------------------------

 SCF Done:  E(RB3LYP) =  -666.119508879     A.U. after   13 cycles

 The electronic state is 1-A.
 Alpha  occ. eigenvalues --  -88.77331 -19.19059 -19.13510 -10.31497 -10.18786
 Alpha  occ. eigenvalues --  -10.18443  -7.83233  -5.79862  -5.79037  -5.79024
 Alpha  occ. eigenvalues --   -1.09821  -1.00714  -0.77522  -0.67014  -0.59235
 Alpha  occ. eigenvalues --   -0.54501  -0.48573  -0.46807  -0.43853  -0.42838
 Alpha  occ. eigenvalues --   -0.38856  -0.35656  -0.34598  -0.31400  -0.29576
 Alpha  occ. eigenvalues --   -0.26476  -0.16677  -0.16486
 Alpha virt. eigenvalues --    0.00904   0.08773   0.10595   0.15244   0.15795
 Alpha virt. eigenvalues --    0.16160   0.19110   0.22218   0.24133   0.31619
 Alpha virt. eigenvalues --    0.34253   0.37671   0.41892   0.42821   0.45217

 Mulliken charges:
               1
     1  C    0.545620
     2  C   -0.202924
     3  H    0.114448
     4  H    0.117524
     5  C   -0.264797
     6  H    0.104000
     7  H    0.100290
     8  O   -0.512881
     9  S   -0.850131
    10  O   -0.487480
    11  H    0.336330
 Sum of Mulliken charges =  -1.00000

 Dipole moment (field-independent basis, Debye):
    X=             11.5770    Y=              1.8209    Z=             -0.1769  Tot=             11.7207
 There are a total of      245034 grid points.
 ElSum from          density=       56.0000011883
 ElSum from atomic densities=       55.0000048269
 Hirshfeld populations at iteration   1 (CA, CB, DipXYZ):
               1          2          3          4          5
     1  C    2.894445   2.894445   0.006173   0.077893   0.013732
     2  C    3.034214   3.034214   0.045495   0.003977  -0.018757
     3  H    0.485661   0.485661  -0.002707  -0.132464   0.044892
     4  H    0.485085   0.485085   0.002216   0.084074   0.111754
     5  C    3.043697   3.043697   0.073413  -0.009594   0.018144

 Normal termination of Gaussian 16 at Mon Nov 29 23:39:56 2021.
