 Gaussian 16, Revision A.03,
 Gaussian 16:  ES64L-G16RevA.03 25-Dec-2016

 ----------------------------------------------------------------------
 #P B3LYP/6-31G(d,p) # Opt=tight freq=raman SCRF=(Solvent=water) # Gfin
 put IOP(6/7=3) Pop=full Density Test # Units(Ang,Deg)
 ----------------------------------------------------------------------

 -------------------
 Title Card Required
 -------------------
 Symbolic Z-matrix:
 Charge = -1 Multiplicity = 1

 SCF Done:  E(RB3LYP) =  -666.006493563     A.U. after   16 cycles
 SCF Done:  E(RB3LYP) =  -666.064401071     A.U. after   13 cycles
 SCF Done:  E(RB3LYP) =  -666.076854411     A.U. after   13 cycles
 SCF Done:  E(RB3LYP) =  -666.113223783     A.U. after   13 cycles
 SCF Done:  E(RB3LYP) =  -666.118316250     A.U. after   11 cycles
 SCF Done:  E(RB3LYP) =  -666.117498040     A.U. after   11 cycles
 SCF Done:  E(RB3LYP) =  -666.118932166     A.U. after   10 cycles
 SCF Done:  E(RB3LYP) =  -666.119077611     A.U. after   10 cycles
 SCF Done:  E(RB3LYP) =  -666.119358572     A.U. after   13 cycles
 SCF Done:  E(RB3LYP) =  -666.119436773     A.U. after   11 cycles
 SCF Done:  E(RB3LYP) =  -666.119508688     A.U. after    9 cycles
 SCF Done:  E(RB3LYP) =  -666.119508595     A.U. after    8 cycles
 SCF Done:  E(RB3LYP) =  -666.119508725     A.U. after    7 cycles
 SCF Done:  E(RB3LYP) =  -666.119508859     A.U. after    8 cycles
 SCF Done:  E(RB3LYP) =  -666.119508869     A.U. after    5 cycles
 SCF Done:  E(RB3LYP) =  -666.119508845     A.U. after    7 cycles
 SCF Done:  E(RB3LYP) =  -666.119508877     A.U. after    7 cycles
 SCF Done:  E(RB3LYP) =  -666.119508880     A.U. after    4 cycles
 SCF Done:  E(RB3LYP) =  -666.119508880     A.U. after    4 cycles
 Optimization completed.
    -- Stationary point found.
 Normal termination of Gaussian 16 at Mon Nov 29 20:02:24 2021.

 ----------------------------------------------------------------------
 #P Geom=AllCheck Guess=TCheck SCRF=Check Test GenChk RB3LYP/6-31G(d,p)
  Freq
 ----------------------------------------------------------------------

 Structure from the checkpoint file:  "/home/rheinheimer/Programs/gaussian/scrgauss/Gau-2781122.chk"
 -------------------
 Title Card Required
 -------------------
 Charge = -1 Multiplicity = 1

                         Standard orientation:
 ---------------------------------------------------------------------
 Center     Atomic      Atomic             Coordinates (Angstroms)
 Number     Number       Type             X           Y           Z
 ---------------------------------------------------------------------
      1          6           0       -1.591730   -0.136350   -0.112175
      2          6           0       -0.167365   -0.236335   -0.601538
      3          1           0        0.001851   -1.262401   -0.935265
      4          1           0       -0.026789    0.436554   -1.452656
      5          6           0        0.843004    0.130466    0.511520
      6          1           0        0.628804    1.151246    0.847298
      7          1           0        0.661146   -0.526990    1.370546
      8          8           0       -2.293461   -1.067057    0.240326
      9         16           0        2.605230   -0.006905   -0.028816
     10          8           0       -2.022628    1.146986   -0.049557
     11          1           0       -2.923429    1.125958    0.318138
 ---------------------------------------------------------------------

 SCF Done:  E(RB3LYP) =  -666.119508880     A.U. after    1 cycles

 The electronic state is 1-A.
 Alpha  occ. eigenvalues --  -88.77331 -19.19059 -19.13510 -10.31497 -10.18786
 Alpha  occ. eigenvalues --  -10.18443  -7.83233  -5.79862  -5.79037  -5.79024
 Alpha  occ. eigenvalues --   -1.09821  -1.00714  -0.77522  -0.67014  -0.59236
 Alpha  occ. eigenvalues --   -0.54501  -0.48573  -0.46807  -0.43853  -0.42838
 Alpha  occ. eigenvalues --   -0.38856  -0.35656  -0.34598  -0.31400  -0.29576
 Alpha  occ. eigenvalues --   -0.26476  -0.16677  -0.16486
 Alpha virt. eigenvalues --    0.00904   0.08773   0.10595   0.15244   0.15795
 Alpha virt. eigenvalues --    0.16160   0.19110   0.22218   0.24133   0.31619
 Alpha virt. eigenvalues --    0.34253   0.37671   0.41892   0.42821   0.45217

 Mulliken charges:
               1
     1  C    0.545618
     2  C   -0.202924
     3  H    0.114448
     4  H    0.117523
     5  C   -0.264796
     6  H    0.103999
     7  H    0.100290
     8  O   -0.512881
     9  S   -0.850130
    10  O   -0.487477
    11  H    0.336330
 Sum of Mulliken charges =  -1.00000

 Dipole moment (field-independent basis, Debye):
    X=            -11.5770    Y=              1.8209    Z=              0.1768  Tot=             11.7207
 Quadrupole moment (field-independent basis, Debye-Ang):
   XX=            -80.0861   YY=            -50.3276   ZZ=            -45.9962
   XY=             -6.3749   XZ=             -0.0021   YZ=              1.5987

  Exact polarizability:  95.279   0.183  60.441  -6.616  -0.606  50.643
 Approx polarizability:  99.052   3.291  74.273  -8.669  -2.693  57.133

                      1                      2                      3
                      A                      A                      A
 Frequencies --     34.8210                98.0118               170.7074
 Red. masses --      3.4213                 3.8655                 4.7195
 Frc consts  --      0.0024                 0.0219                 0.0810
 IR Inten    --      1.0833                12.3845                 5.3273
 Raman Activ --      0.9779                 3.1714                 0.5163

                      4                      5                      6
                      A                      A                      A
 Frequencies --    268.1556               433.5091               573.4605
 Red. masses --      9.7533                 2.9122                 2.0382
 Frc consts  --      0.4132                 0.3225                 0.3949
 IR Inten    --     13.5811                 5.0856                97.6532
 Raman Activ --      3.4172                 0.8015                20.3052

                      7                      8                      9
                      A                      A                      A
 Frequencies --    602.5088               688.4035               763.5566
 Red. masses --      2.0441                 3.3543                 1.2414
 Frc consts  --      0.4372                 0.9366                 0.4264
 IR Inten    --     99.5352                71.7491                 0.5391
 Raman Activ --      6.0604                28.1839                 2.2311

                     10                     11                     12
                      A                      A                      A
 Frequencies --    778.8224               894.5332               979.5672
 Red. masses --      4.0844                 4.1120                 1.6014
 Frc consts  --      1.4597                 1.9386                 0.9053
 IR Inten    --     11.6571                 9.4436                53.3997
 Raman Activ --     10.8556                10.7538                19.4887

                     13                     14                     15
                      A                      A                      A
 Frequencies --   1000.7571              1108.5071              1215.9767
 Red. masses --      4.2809                 1.4042                 1.5966
 Frc consts  --      2.5261                 1.0166                 1.3909
 IR Inten    --     20.8383               153.2746               204.7592
 Raman Activ --     22.5516                 6.5062                13.6720

                     16                     17                     18
                      A                      A                      A
 Frequencies --   1240.8324              1292.0663              1316.8584
 Red. masses --      1.2299                 1.1787                 1.2987
 Frc consts  --      1.1157                 1.1594                 1.3269
 IR Inten    --     25.2642                 8.0243                44.2421
 Raman Activ --     10.9395                32.8452                18.6781

                     19                     20                     21
                      A                      A                      A
 Frequencies --   1370.1866              1476.8191              1498.5548
 Red. masses --      2.3105                 1.1021                 1.1004
 Frc consts  --      2.5558                 1.4162                 1.4560
 IR Inten    --    131.0860                11.3762                 1.0182
 Raman Activ --     11.4340                63.0996                 9.5655

                     22                     23                     24
                      A                      A                      A
 Frequencies --   1798.6083              3023.0665              3065.6455
 Red. masses --      9.6309                 1.0581                 1.1046
 Frc consts  --     18.3565                 5.6975                 6.1164
 IR Inten    --    496.7809                88.1308                41.6051
 Raman Activ --     37.9826               253.8141               207.5914

                     25                     26                     27
                      A                      A                      A
 Frequencies --   3074.8141              3136.4760              3738.1291
 Red. masses --      1.0605                 1.1062                 1.0644
 Frc consts  --      5.9072                 6.4115                 8.7632
 IR Inten    --     25.1138                37.3064                72.8123
 Raman Activ --    143.1489                77.1530               231.7623

 - Thermochemistry -
 -------------------
 Temperature   298.150 Kelvin.  Pressure   1.00000 Atm.
 Atom     1 has atomic number  6 and mass  12.00000

 Molecular mass:   105.00103 amu.
 Principal axes and moments of inertia in atomic units:
                           1         2         3
     Eigenvalues --   211.988291534.114091643.92717
           X            0.99997  -0.00794   0.00106
           Y            0.00789   0.99927   0.03725
           Z           -0.00136  -0.03724   0.99931
 This molecule is an asymmetric top.
 Rotational symmetry number  1.
 Rotational temperatures (Kelvin)      0.40858     0.05646     0.05269
 Rotational constants (GHZ):           8.51340     1.17641     1.09782
 Zero-point vibrational energy     213194.6 (Joules/Mol)
                                   50.95473 (Kcal/Mol)
 Warning -- explicit consideration of   7 degrees of freedom as
           vibrations may cause significant error
 Vibrational temperatures:     50.10   141.02   245.61   385.82   623.72
          (Kelvin)            825.08   866.88   990.46  1098.59  1120.55
                             1287.03  1409.38  1439.87  1594.89  1749.52
                             1785.28  1859.00  1894.67  1971.39  2124.81
                             2156.09  2587.80  4349.52  4410.78  4423.97
                             4512.69  5378.33

 Zero-point correction=                           0.081202 (Hartree/Particle)
 Thermal correction to Energy=                    0.087841
 Thermal correction to Enthalpy=                  0.088785
 Thermal correction to Gibbs Free Energy=         0.048947
 Sum of electronic and zero-point Energies=           -666.038307
 Sum of electronic and thermal Energies=              -666.031668
 Sum of electronic and thermal Enthalpies=            -666.030724
 Sum of electronic and thermal Free Energies=         -666.070562

                     E (Thermal)             CV                S
                      KCal/Mol        Cal/Mol-Kelvin    Cal/Mol-Kelvin
 Total                   55.121             21.791             83.846
 Electronic               0.000              0.000              0.000
 Translational            0.889              2.981             39.863
 Rotational               0.889              2.981             27.771
 Vibrational             53.343             15.829             16.211
 Vibration     1          0.594              1.983              5.534
 Vibration     2          0.603              1.951              3.493
 Vibration     3          0.626              1.879              2.428
 Vibration     4          0.673              1.732              1.608
 Vibration     5          0.794              1.397              0.847
 Vibration     6          0.930              1.089              0.498
 Vibration     7          0.961              1.026              0.445

 Optimization completed.
    -- Stationary point found.
 Normal termination of Gaussian 16 at Mon Nov 29 20:03:39 2021.
