 Gaussian 16, Revision A.03,
 Gaussian 16:  ES64L-G16RevA.03 25-Dec-2016

 ----------------------------------------------------------------------
 #p B3LYP/6-31G(d,p) scrf=(solvent=water) # SCRF=(Solvent=Water) # Gfin
 put IOP(6/7=3) Pop=chelp Density Test
 ----------------------------------------------------------------------

 -----------------------------
 w-mpa-1dp-sh_opt_freq_g09.log
 -----------------------------
 Symbolic Z-matrix:
 Charge = -1 Multiplicity = 1

                         Standard orientation:
 ---------------------------------------------------------------------
 Center     Atomic      Atomic             Coordinates (Angstroms)
 Number     Number       Type             X           Y           Z
 ---------------------------------------------------------------------
      1          6           0        1.591729   -0.136351    0.112169
      2          6           0        0.167369   -0.236333    0.601539
      3          1           0       -0.001850   -1.262403    0.935269
      4          1           0        0.026788    0.436547    1.452659
      5          6           0       -0.843001    0.130466   -0.511521
      6          1           0       -0.628802    1.151247   -0.847301
      7          1           0       -0.661151   -0.526993   -1.370551
      8          8           0        2.293460   -1.067060   -0.240331
      9         16           0       -2.605231   -0.006905    0.028819
     10          8           0        2.022628    1.146989    0.049559
     11          1           0        2.923428    1.125960   -0.318141
 ---------------------------------------------------------------------

 SCF Done:  E(RB3LYP) =  -666.015172529     A.U. after   14 cycles

 The electronic state is 1-A.
 Alpha  occ. eigenvalues --  -88.58440 -19.07004 -19.00421 -10.18145 -10.03783
 Alpha  occ. eigenvalues --  -10.02477  -7.64312  -5.61009  -5.60088  -5.60055
 Alpha  occ. eigenvalues --   -0.97471  -0.87958  -0.62632  -0.51714  -0.45605
 Alpha  occ. eigenvalues --   -0.37245  -0.35398  -0.33221  -0.30634  -0.27809
 Alpha  occ. eigenvalues --   -0.25664  -0.20791  -0.19298  -0.18387  -0.14630
 Alpha  occ. eigenvalues --   -0.10335   0.02540   0.02873
 Alpha virt. eigenvalues --    0.14411   0.18680   0.26847   0.30169   0.30729
 Alpha virt. eigenvalues --    0.31630   0.34165   0.35979   0.39609   0.45713
 Alpha virt. eigenvalues --    0.47724   0.56798   0.60018   0.62178   0.63776

 Mulliken charges:
               1
     1  C    0.512522
     2  C   -0.179138
     3  H    0.104518
     4  H    0.096544
     5  C   -0.252343
     6  H    0.072838
     7  H    0.069538
     8  O   -0.507294
     9  S   -0.723400
    10  O   -0.481031
    11  H    0.287247
 Sum of Mulliken charges =  -1.00000

 Dipole moment (field-independent basis, Debye):
    X=              9.3596    Y=              1.4917    Z=             -0.0183  Tot=              9.4778
 Quadrupole moment (field-independent basis, Debye-Ang):
   XX=            -77.8455   YY=            -50.5273   ZZ=            -46.3050
   XY=              5.6502   XZ=             -0.1026   YZ=             -1.4723

 ESP charges:
               1
     1  C    0.609970
     2  C    0.069008
     3  H   -0.093268
     4  H   -0.129582
     5  C    0.870608
     6  H   -0.264639
     7  H   -0.297282
     8  O   -0.562177
     9  S   -0.999815
    10  O   -0.511631
    11  H    0.308808
 Sum of ESP charges =  -1.00000

 Normal termination of Gaussian 16 at Fri Jan  7 14:30:53 2022.
