 Gaussian 16, Revision A.03,
 Gaussian 16:  ES64L-G16RevA.03 25-Dec-2016

 ----------------------------------------------------------------------
 #t B3LYP/6-31G(d,p) # SCRF=(Solvent=water) # Gfinput IOP(6/7=3) Pop=hi
 rshfeld Density Test # Units(Ang,Deg)
 ----------------------------------------------------------------------
 -------------------
 Title Card Required
 -------------------
 Symbolic Z-matrix:
 Charge =  0 Multiplicity = 2

                         Standard orientation:
 ---------------------------------------------------------------------
 Center     Atomic      Atomic             Coordinates (Angstroms)
 Number     Number       Type             X           Y           Z
 ---------------------------------------------------------------------
      1          6           0        1.591729   -0.136351    0.112169
      2          6           0        0.167369   -0.236333    0.601539
      3          1           0       -0.001850   -1.262403    0.935269
      4          1           0        0.026788    0.436547    1.452659
      5          6           0       -0.843001    0.130466   -0.511521
      6          1           0       -0.628802    1.151247   -0.847301
      7          1           0       -0.661151   -0.526993   -1.370551
      8          8           0        2.293460   -1.067060   -0.240331
      9         16           0       -2.605231   -0.006905    0.028819
     10          8           0        2.022628    1.146989    0.049559
     11          1           0        2.923428    1.125960   -0.318141
 ---------------------------------------------------------------------

 SCF Done:  E(UB3LYP) =  -665.955663720     A.U. after   22 cycles

 The electronic state is 2-A.
 Alpha  occ. eigenvalues --  -88.90350 -19.20053 -19.14718 -10.32961 -10.23836
 Alpha  occ. eigenvalues --  -10.20872  -7.96345  -5.93432  -5.92518  -5.91611
 Alpha  occ. eigenvalues --   -1.10876  -1.01797  -0.81759  -0.73420  -0.63482
 Alpha  occ. eigenvalues --   -0.60024  -0.50344  -0.48440  -0.46610  -0.45522
 Alpha  occ. eigenvalues --   -0.40713  -0.38825  -0.38128  -0.36608  -0.32466
 Alpha  occ. eigenvalues --   -0.29409  -0.28415  -0.25582
 Alpha virt. eigenvalues --   -0.01226   0.04480   0.08481   0.12444   0.13472
 Alpha virt. eigenvalues --    0.14485   0.16708   0.19764   0.21312   0.29124
 Alpha virt. eigenvalues --    0.32246   0.32568   0.35752   0.36367   0.40009

  Beta  occ. eigenvalues --  -88.89814 -19.20052 -19.14718 -10.32964 -10.23860
  Beta  occ. eigenvalues --  -10.20875  -7.95817  -5.92194  -5.91691  -5.91295
  Beta  occ. eigenvalues --   -1.10876  -1.01796  -0.81228  -0.71812  -0.61924
  Beta  occ. eigenvalues --   -0.59462  -0.50230  -0.48381  -0.46119  -0.45383
  Beta  occ. eigenvalues --   -0.40546  -0.38706  -0.37602  -0.35821  -0.32427
  Beta  occ. eigenvalues --   -0.28323  -0.24314
  Beta virt. eigenvalues --   -0.16143  -0.01009   0.05339   0.08552   0.12600
  Beta virt. eigenvalues --    0.13689   0.14522   0.16935   0.19817   0.21461
  Beta virt. eigenvalues --    0.29408   0.32817   0.33208   0.36988   0.39097

 Mulliken charges and spin densities:
               1          2
     1  C    0.558803  -0.001270
     2  C   -0.221656  -0.000410
     3  H    0.147420   0.000698
     4  H    0.150813   0.000712
     5  C   -0.367808  -0.032700
     6  H    0.183056   0.025780
     7  H    0.181148   0.026004
     8  O   -0.495776   0.000175
     9  S    0.000973   0.980885
    10  O   -0.481892   0.000142
    11  H    0.344919  -0.000016
 Sum of Mulliken charges =  -0.00000   1.00000

 Dipole moment (field-independent basis, Debye):
    X=              0.8938    Y=              1.8164    Z=             -0.2957  Tot=              2.0459
 There are a total of      245034 grid points.
 ElSum from          density=       55.0000011413
 ElSum from atomic densities=       55.0000048269
 Hirshfeld populations at iteration   1 (CA, CB, DipXYZ):
               1          2          3          4          5
     1  C    2.889905   2.890400  -0.000615   0.074651   0.022285
     2  C    3.027814   3.025290   0.030507   0.002338  -0.013853
     3  H    0.477795   0.476252  -0.016434  -0.144249   0.050228
     4  H    0.477216   0.475647  -0.011409   0.091130   0.123239
     5  C    3.034135   3.001544   0.017423  -0.006323   0.009187

 Normal termination of Gaussian 16 at Mon Nov 29 23:39:44 2021.
