 Gaussian 16, Revision A.03,
 Gaussian 16:  ES64L-G16RevA.03 25-Dec-2016

 ----------------------------------------------------------------------
 #t B3LYP/6-31G(d,p) # SCRF=(Solvent=water) # Gfinput IOP(6/7=3) Pop=hi
 rshfeld Density Test # Units(Ang,Deg)
 ----------------------------------------------------------------------
 -------------------
 Title Card Required
 -------------------
 Symbolic Z-matrix:
 Charge = -2 Multiplicity = 2

                         Standard orientation:
 ---------------------------------------------------------------------
 Center     Atomic      Atomic             Coordinates (Angstroms)
 Number     Number       Type             X           Y           Z
 ---------------------------------------------------------------------
      1          6           0        1.591729   -0.136351    0.112169
      2          6           0        0.167369   -0.236333    0.601539
      3          1           0       -0.001850   -1.262403    0.935269
      4          1           0        0.026788    0.436547    1.452659
      5          6           0       -0.843001    0.130466   -0.511521
      6          1           0       -0.628802    1.151247   -0.847301
      7          1           0       -0.661151   -0.526993   -1.370551
      8          8           0        2.293460   -1.067060   -0.240331
      9         16           0       -2.605231   -0.006905    0.028819
     10          8           0        2.022628    1.146989    0.049559
     11          1           0        2.923428    1.125960   -0.318141
 ---------------------------------------------------------------------

 SCF Done:  E(UB3LYP) =  -666.104363905     A.U. after   16 cycles

 The electronic state is 2-A.
 Alpha  occ. eigenvalues --  -88.74996 -19.09893 -19.00866 -10.15868 -10.14533
 Alpha  occ. eigenvalues --  -10.12809  -7.80837  -5.77409  -5.76688  -5.76687
 Alpha  occ. eigenvalues --   -1.00303  -0.90258  -0.72030  -0.61828  -0.52378
 Alpha  occ. eigenvalues --   -0.51108  -0.41162  -0.38594  -0.37572  -0.36443
 Alpha  occ. eigenvalues --   -0.31065  -0.30772  -0.29905  -0.25721  -0.23733
 Alpha  occ. eigenvalues --   -0.17849  -0.14664  -0.14508   0.02082
 Alpha virt. eigenvalues --    0.11681   0.13329   0.17711   0.18117   0.18362
 Alpha virt. eigenvalues --    0.22042   0.27062   0.29364   0.37358   0.40041
 Alpha virt. eigenvalues --    0.40784   0.43692   0.44642   0.48219   0.57439

  Beta  occ. eigenvalues --  -88.74963 -19.09683 -19.00208 -10.14972 -10.14269
  Beta  occ. eigenvalues --  -10.12897  -7.80802  -5.77311  -5.76666  -5.76665
  Beta  occ. eigenvalues --   -0.99518  -0.89105  -0.71571  -0.61228  -0.51755
  Beta  occ. eigenvalues --   -0.50813  -0.40500  -0.38075  -0.36867  -0.34158
  Beta  occ. eigenvalues --   -0.30689  -0.30181  -0.29080  -0.25237  -0.20519
  Beta  occ. eigenvalues --   -0.17331  -0.14525  -0.14287
  Beta virt. eigenvalues --    0.10146   0.13009   0.15765   0.18080   0.18394
  Beta virt. eigenvalues --    0.18601   0.22307   0.28088   0.31093   0.37989
  Beta virt. eigenvalues --    0.40470   0.41358   0.44015   0.44862   0.48823

 Mulliken charges and spin densities:
               1          2
     1  C    0.291025   0.560259
     2  C   -0.153886  -0.031906
     3  H    0.019726   0.020083
     4  H    0.001182   0.046226
     5  C   -0.203933   0.045823
     6  H    0.055612   0.000623
     7  H    0.043110   0.006791
     8  O   -0.707275   0.207762
     9  S   -1.037637   0.106391
    10  O   -0.572125   0.040105
    11  H    0.264201  -0.002156
 Sum of Mulliken charges =  -2.00000   1.00000

 Dipole moment (field-independent basis, Debye):
    X=              7.6907    Y=              2.4398    Z=             -0.6173  Tot=              8.0921
 There are a total of      245034 grid points.
 ElSum from          density=       57.0000019694
 ElSum from atomic densities=       55.0000048269
 Hirshfeld populations at iteration   1 (CA, CB, DipXYZ):
               1          2          3          4          5
     1  C    3.207050   2.810125   0.013045   0.097594  -0.013781
     2  C    3.085241   3.033619   0.011095   0.008916  -0.040036
     3  H    0.516285   0.500246   0.009030  -0.102435   0.030558
     4  H    0.532099   0.498375   0.019886   0.058034   0.070255
     5  C    3.092908   3.029238   0.061265  -0.000507   0.011746

 Normal termination of Gaussian 16 at Mon Nov 29 23:39:23 2021.
