 Gaussian 16, Revision A.03,
 Gaussian 16:  ES64L-G16RevA.03 25-Dec-2016

 ----------------------------------------------------------------------
 #t B3LYP/6-31G(d,p) # SCRF=(Solvent=water) # Gfinput IOP(6/7=3) Pop=hi
 rshfeld Density Test # Units(Ang,Deg)
 ----------------------------------------------------------------------
 ------------------------------
 w-appa-1p-nh2_opt_freq_g09.log
 ------------------------------
 Symbolic Z-matrix:
 Charge =  1 Multiplicity = 1

                         Standard orientation:
 ---------------------------------------------------------------------
 Center     Atomic      Atomic             Coordinates (Angstroms)
 Number     Number       Type             X           Y           Z
 ---------------------------------------------------------------------
      1          6           0        1.008930    1.614581    0.329121
      2          6           0        2.354130    1.808702    0.012351
      3          6           0        3.192990    0.716792   -0.208599
      4          6           0        2.640510   -0.554608   -0.101259
      5          6           0        1.306190   -0.772059    0.214541
      6          6           0        0.465620    0.327771    0.434401
      7          1           0        0.371080    2.476371    0.501811
      8          1           0        2.755619    2.813602   -0.060819
      9          1           0        4.241100    0.857572   -0.451909
     10          1           0        0.914031   -1.782139    0.294151
     11          6           0       -1.000140    0.120011    0.745901
     12          1           0       -1.137040   -0.814759    1.295811
     13          1           0       -1.353350    0.930191    1.392001
     14          6           0       -1.860000    0.081611   -0.538649
     15          1           0       -1.748180    1.003641   -1.112529
     16          1           0       -1.526620   -0.747869   -1.174459
     17          7           0        3.517801   -1.731288   -0.321399
     18          1           0        3.981581   -1.697608   -1.235839
     19          1           0        4.255181   -1.797578    0.389301
     20          6           0       -3.338040   -0.110710   -0.276649
     21          8           0       -4.227440    0.564180   -0.754569
     22          8           0       -3.578069   -1.150800    0.550821
     23          1           0       -4.542909   -1.214450    0.661811
     24          1           0        2.987831   -2.607548   -0.286469
 ---------------------------------------------------------------------

 SCF Done:  E(RB3LYP) =  -555.276873142     A.U. after   13 cycles

 The electronic state is 1-A.
 Alpha  occ. eigenvalues --  -19.20102 -19.14595 -14.48777 -10.32839 -10.27292
 Alpha  occ. eigenvalues --  -10.22316 -10.22247 -10.22157 -10.21460 -10.21030
 Alpha  occ. eigenvalues --  -10.20818 -10.20637  -1.10993  -1.03325  -1.01947
 Alpha  occ. eigenvalues --   -0.88367  -0.81588  -0.77338  -0.76460  -0.68644
 Alpha  occ. eigenvalues --   -0.64537  -0.63063  -0.60714  -0.60160  -0.58131
 Alpha  occ. eigenvalues --   -0.54923  -0.51107  -0.49855  -0.48774  -0.48338
 Alpha  occ. eigenvalues --   -0.46261  -0.45196  -0.43913  -0.42288  -0.40627
 Alpha  occ. eigenvalues --   -0.39438  -0.38228  -0.37578  -0.36778  -0.35570
 Alpha  occ. eigenvalues --   -0.32500  -0.28477  -0.28041  -0.26693
 Alpha virt. eigenvalues --   -0.03438  -0.02976   0.00349   0.02974   0.06962
 Alpha virt. eigenvalues --    0.08145   0.08739   0.08983   0.11919   0.12250
 Alpha virt. eigenvalues --    0.13287   0.14941   0.15570   0.16513   0.17674

 Mulliken charges:
               1
     1  C   -0.101232
     2  C   -0.103299
     3  C   -0.074684
     4  C    0.149895
     5  C   -0.102501
     6  C    0.090393
     7  H    0.121203
     8  H    0.130882
     9  H    0.144576
    10  H    0.140654
    11  C   -0.256957
    12  H    0.138601
    13  H    0.133460
    14  C   -0.239120
    15  H    0.140524
    16  H    0.155079
    17  N   -0.568528
    18  H    0.390348
    19  H    0.391725
    20  C    0.570408
    21  O   -0.501135
    22  O   -0.480040
    23  H    0.345285
    24  H    0.384464
 Sum of Mulliken charges =   1.00000

 Dipole moment (field-independent basis, Debye):
    X=             16.6051    Y=             -8.0508    Z=             -0.2406  Tot=             18.4554
 There are a total of      542350 grid points.
 ElSum from          density=       88.0000064190
 ElSum from atomic densities=       89.0000299670
 Hirshfeld populations at iteration   1 (CA, CB, DipXYZ):
               1          2          3          4          5
     1  C    3.012401   3.012401  -0.038188   0.053754   0.010024
     2  C    3.009692   3.009692   0.029604   0.070152  -0.005582
     3  C    3.015256   3.015256   0.079679   0.011543  -0.018249
     4  C    2.971712   2.971712   0.108854  -0.138580  -0.026591
     5  C    3.016009   3.016009  -0.029929  -0.063360   0.006736

 Normal termination of Gaussian 16 at Tue Nov 30 02:29:46 2021.
