 Gaussian 16, Revision A.03,
 Gaussian 16:  ES64L-G16RevA.03 25-Dec-2016

 ----------------------------------------------------------------------
 #p B3LYP/6-31G(d,p) scrf=(solvent=water) # SCRF=(Solvent=Water) # Gfin
 put IOP(6/7=3) Pop=chelp Density Test
 ----------------------------------------------------------------------

 ------------------------------
 w-appa-1p-nh2_opt_freq_g09.log
 ------------------------------
 Symbolic Z-matrix:
 Charge =  1 Multiplicity = 1

                         Standard orientation:
 ---------------------------------------------------------------------
 Center     Atomic      Atomic             Coordinates (Angstroms)
 Number     Number       Type             X           Y           Z
 ---------------------------------------------------------------------
      1          6           0        1.008930    1.614581    0.329121
      2          6           0        2.354130    1.808702    0.012351
      3          6           0        3.192990    0.716792   -0.208599
      4          6           0        2.640510   -0.554608   -0.101259
      5          6           0        1.306190   -0.772059    0.214541
      6          6           0        0.465620    0.327771    0.434401
      7          1           0        0.371080    2.476371    0.501811
      8          1           0        2.755619    2.813602   -0.060819
      9          1           0        4.241100    0.857572   -0.451909
     10          1           0        0.914031   -1.782139    0.294151
     11          6           0       -1.000140    0.120011    0.745901
     12          1           0       -1.137040   -0.814759    1.295811
     13          1           0       -1.353350    0.930191    1.392001
     14          6           0       -1.860000    0.081611   -0.538649
     15          1           0       -1.748180    1.003641   -1.112529
     16          1           0       -1.526620   -0.747869   -1.174459
     17          7           0        3.517801   -1.731288   -0.321399
     18          1           0        3.981581   -1.697608   -1.235839
     19          1           0        4.255181   -1.797578    0.389301
     20          6           0       -3.338040   -0.110710   -0.276649
     21          8           0       -4.227440    0.564180   -0.754569
     22          8           0       -3.578069   -1.150800    0.550821
     23          1           0       -4.542909   -1.214450    0.661811
     24          1           0        2.987831   -2.607548   -0.286469
 ---------------------------------------------------------------------

 SCF Done:  E(RB3LYP) =  -555.177097883     A.U. after   14 cycles

 The electronic state is 1-A.
 Alpha  occ. eigenvalues --  -19.28593 -19.22575 -14.66616 -10.41824 -10.41168
 Alpha  occ. eigenvalues --  -10.36324 -10.36235 -10.35471 -10.34862 -10.34137
 Alpha  occ. eigenvalues --  -10.31987 -10.31135  -1.20922  -1.19348  -1.10003
 Alpha  occ. eigenvalues --   -1.02177  -0.94035  -0.91430  -0.88458  -0.81351
 Alpha  occ. eigenvalues --   -0.79194  -0.78166  -0.77583  -0.73503  -0.70254
 Alpha  occ. eigenvalues --   -0.68798  -0.65159  -0.62265  -0.59252  -0.58708
 Alpha  occ. eigenvalues --   -0.57687  -0.56396  -0.55628  -0.53314  -0.52598
 Alpha  occ. eigenvalues --   -0.51128  -0.50304  -0.48828  -0.47574  -0.46549
 Alpha  occ. eigenvalues --   -0.41696  -0.40741  -0.40179  -0.35989
 Alpha virt. eigenvalues --   -0.17461  -0.16393  -0.15785  -0.10291  -0.08723
 Alpha virt. eigenvalues --   -0.08189  -0.06783  -0.01663  -0.00562  -0.00302
 Alpha virt. eigenvalues --    0.00425   0.02084   0.03541   0.03819   0.05151

 Mulliken charges:
               1
     1  C   -0.086912
     2  C   -0.085900
     3  C   -0.083601
     4  C    0.136044
     5  C   -0.105364
     6  C    0.104976
     7  H    0.140252
     8  H    0.148915
     9  H    0.128962
    10  H    0.120006
    11  C   -0.266630
    12  H    0.144763
    13  H    0.144030
    14  C   -0.241345
    15  H    0.150843
    16  H    0.135361
    17  N   -0.588627
    18  H    0.374020
    19  H    0.375527
    20  C    0.565543
    21  O   -0.439665
    22  O   -0.478960
    23  H    0.340258
    24  H    0.367503
 Sum of Mulliken charges =   1.00000

 Dipole moment (field-independent basis, Debye):
    X=             14.3033    Y=             -6.2888    Z=             -0.1295  Tot=             15.6253
 Quadrupole moment (field-independent basis, Debye-Ang):
   XX=            -11.0151   YY=            -45.3818   ZZ=            -67.6726
   XY=            -15.0342   XZ=            -11.9077   YZ=              3.8384

 ESP charges:
               1
     1  C   -0.084196
     2  C   -0.130204
     3  C   -0.153785
     4  C    0.283355
     5  C   -0.196491
     6  C    0.108878
     7  H    0.118068
     8  H    0.160154
     9  H    0.155113
    10  H    0.140231
    11  C    0.159073
    12  H   -0.018257
    13  H   -0.027996
    14  C    0.024277
    15  H   -0.006088
    16  H   -0.007259
    17  N   -0.925302
    18  H    0.481587
    19  H    0.470205
    20  C    0.615797
    21  O   -0.494199
    22  O   -0.549599
    23  H    0.411200
    24  H    0.465439
 Sum of ESP charges =   1.00000

 Normal termination of Gaussian 16 at Fri Jan  7 14:09:43 2022.
