 Gaussian 16, Revision A.03,
 Gaussian 16:  ES64L-G16RevA.03 25-Dec-2016

 ----------------------------------------------------------------------
 #t B3LYP/6-31G(d,p) # SCRF=(Solvent=water) # Gfinput IOP(6/7=3) Pop=hi
 rshfeld Density Test # Units(Ang,Deg)
 ----------------------------------------------------------------------
 ------------------------------
 w-appa-1p-nh2_opt_freq_g09.log
 ------------------------------
 Symbolic Z-matrix:
 Charge =  2 Multiplicity = 2

                         Standard orientation:
 ---------------------------------------------------------------------
 Center     Atomic      Atomic             Coordinates (Angstroms)
 Number     Number       Type             X           Y           Z
 ---------------------------------------------------------------------
      1          6           0        1.008930    1.614581    0.329121
      2          6           0        2.354130    1.808702    0.012351
      3          6           0        3.192990    0.716792   -0.208599
      4          6           0        2.640510   -0.554608   -0.101259
      5          6           0        1.306190   -0.772059    0.214541
      6          6           0        0.465620    0.327771    0.434401
      7          1           0        0.371080    2.476371    0.501811
      8          1           0        2.755619    2.813602   -0.060819
      9          1           0        4.241100    0.857572   -0.451909
     10          1           0        0.914031   -1.782139    0.294151
     11          6           0       -1.000140    0.120011    0.745901
     12          1           0       -1.137040   -0.814759    1.295811
     13          1           0       -1.353350    0.930191    1.392001
     14          6           0       -1.860000    0.081611   -0.538649
     15          1           0       -1.748180    1.003641   -1.112529
     16          1           0       -1.526620   -0.747869   -1.174459
     17          7           0        3.517801   -1.731288   -0.321399
     18          1           0        3.981581   -1.697608   -1.235839
     19          1           0        4.255181   -1.797578    0.389301
     20          6           0       -3.338040   -0.110710   -0.276649
     21          8           0       -4.227440    0.564180   -0.754569
     22          8           0       -3.578069   -1.150800    0.550821
     23          1           0       -4.542909   -1.214450    0.661811
     24          1           0        2.987831   -2.607548   -0.286469
 ---------------------------------------------------------------------

 SCF Done:  E(UB3LYP) =  -555.010524745     A.U. after   25 cycles

 The electronic state is 2-A.
 Alpha  occ. eigenvalues --  -19.23160 -19.20324 -14.51227 -10.36849 -10.32726
 Alpha  occ. eigenvalues --  -10.30629 -10.29934 -10.28705 -10.26907 -10.26799
 Alpha  occ. eigenvalues --  -10.24943 -10.24844  -1.14687  -1.06220  -1.06097
 Alpha  occ. eigenvalues --   -0.94795  -0.87081  -0.82666  -0.81687  -0.73250
 Alpha  occ. eigenvalues --   -0.69712  -0.67398  -0.63817  -0.62420  -0.61519
 Alpha  occ. eigenvalues --   -0.59734  -0.55691  -0.54261  -0.53292  -0.52616
 Alpha  occ. eigenvalues --   -0.50247  -0.50025  -0.48851  -0.46532  -0.45730
 Alpha  occ. eigenvalues --   -0.43573  -0.43114  -0.42182  -0.41370  -0.39201
 Alpha  occ. eigenvalues --   -0.36045  -0.34496  -0.33157  -0.33011
 Alpha virt. eigenvalues --   -0.09797  -0.08328  -0.03269   0.01619   0.03976
 Alpha virt. eigenvalues --    0.05365   0.06651   0.06829   0.09639   0.09950
 Alpha virt. eigenvalues --    0.10192   0.12234   0.13076   0.13521   0.14603

  Beta  occ. eigenvalues --  -19.23112 -19.19858 -14.51223 -10.36863 -10.32785
  Beta  occ. eigenvalues --  -10.30211 -10.29458 -10.28517 -10.26921 -10.26727
  Beta  occ. eigenvalues --  -10.24828 -10.24809  -1.14280  -1.06071  -1.05542
  Beta  occ. eigenvalues --   -0.93974  -0.86234  -0.82370  -0.80953  -0.72834
  Beta  occ. eigenvalues --   -0.69307  -0.67031  -0.63632  -0.62394  -0.61379
  Beta  occ. eigenvalues --   -0.59457  -0.55416  -0.53959  -0.52703  -0.52116
  Beta  occ. eigenvalues --   -0.49879  -0.49823  -0.48501  -0.46092  -0.44248
  Beta  occ. eigenvalues --   -0.43146  -0.42872  -0.41364  -0.40859  -0.39066
  Beta  occ. eigenvalues --   -0.35692  -0.32669  -0.30588
  Beta virt. eigenvalues --   -0.26562  -0.07343  -0.06950  -0.03034   0.01630
  Beta virt. eigenvalues --    0.04074   0.06176   0.06766   0.06994   0.09694
  Beta virt. eigenvalues --    0.10034   0.10748   0.12474   0.13161   0.13798

 Mulliken charges and spin densities:
               1          2
     1  C   -0.041752   0.048991
     2  C   -0.070464  -0.024243
     3  C    0.026591   0.356834
     4  C    0.174549  -0.057433
     5  C   -0.019331   0.138803
     6  C    0.130972   0.304590
     7  H    0.184205  -0.002951
     8  H    0.191773  -0.000270
     9  H    0.218329  -0.013082
    10  H    0.205776  -0.005627
    11  C   -0.270659  -0.001289
    12  H    0.188262   0.007741
    13  H    0.182906   0.003192
    14  C   -0.256440   0.062645
    15  H    0.182135  -0.001920
    16  H    0.198179  -0.002483
    17  N   -0.563565   0.002034
    18  H    0.406894  -0.000482
    19  H    0.408608  -0.000628
    20  C    0.618134  -0.012713
    21  O   -0.407671   0.182280
    22  O   -0.455859   0.015499
    23  H    0.368085   0.000817
    24  H    0.400345  -0.000308
 Sum of Mulliken charges =   2.00000   1.00000

 Dipole moment (field-independent basis, Debye):
    X=             18.7532    Y=             -6.4607    Z=             -0.1921  Tot=             19.8358
 There are a total of      542350 grid points.
 ElSum from          density=       87.0000055275
 ElSum from atomic densities=       89.0000299670
 Hirshfeld populations at iteration   1 (CA, CB, DipXYZ):
               1          2          3          4          5
     1  C    3.012654   2.947219  -0.055455   0.045476   0.017389
     2  C    2.991375   2.963571   0.057344   0.066672  -0.012033
     3  C    3.075001   2.833310   0.094951   0.021087  -0.022114
     4  C    2.955319   2.939510   0.119754  -0.113680  -0.028942
     5  C    3.036699   2.917035  -0.056665  -0.057493   0.018150

 Normal termination of Gaussian 16 at Tue Nov 30 02:29:03 2021.
