 Gaussian 16, Revision A.03,
 Gaussian 16:  ES64L-G16RevA.03 25-Dec-2016

 ----------------------------------------------------------------------
 #t B3LYP/6-31G(d,p) # SCRF=(Solvent=water) # Gfinput IOP(6/7=3) Pop=hi
 rshfeld Density Test # Units(Ang,Deg)
 ----------------------------------------------------------------------
 ------------------------------
 w-appa-1p-nh2_opt_freq_g09.log
 ------------------------------
 Symbolic Z-matrix:
 Charge =  0 Multiplicity = 2

                         Standard orientation:
 ---------------------------------------------------------------------
 Center     Atomic      Atomic             Coordinates (Angstroms)
 Number     Number       Type             X           Y           Z
 ---------------------------------------------------------------------
      1          6           0        1.008930    1.614581    0.329121
      2          6           0        2.354130    1.808702    0.012351
      3          6           0        3.192990    0.716792   -0.208599
      4          6           0        2.640510   -0.554608   -0.101259
      5          6           0        1.306190   -0.772059    0.214541
      6          6           0        0.465620    0.327771    0.434401
      7          1           0        0.371080    2.476371    0.501811
      8          1           0        2.755619    2.813602   -0.060819
      9          1           0        4.241100    0.857572   -0.451909
     10          1           0        0.914031   -1.782139    0.294151
     11          6           0       -1.000140    0.120011    0.745901
     12          1           0       -1.137040   -0.814759    1.295811
     13          1           0       -1.353350    0.930191    1.392001
     14          6           0       -1.860000    0.081611   -0.538649
     15          1           0       -1.748180    1.003641   -1.112529
     16          1           0       -1.526620   -0.747869   -1.174459
     17          7           0        3.517801   -1.731288   -0.321399
     18          1           0        3.981581   -1.697608   -1.235839
     19          1           0        4.255181   -1.797578    0.389301
     20          6           0       -3.338040   -0.110710   -0.276649
     21          8           0       -4.227440    0.564180   -0.754569
     22          8           0       -3.578069   -1.150800    0.550821
     23          1           0       -4.542909   -1.214450    0.661811
     24          1           0        2.987831   -2.607548   -0.286469
 ---------------------------------------------------------------------

 SCF Done:  E(UB3LYP) =  -555.312758252     A.U. after   38 cycles

 The electronic state is 2-A.
 Alpha  occ. eigenvalues --  -19.19222 -19.13488 -14.45124 -10.31450 -10.18803
 Alpha  occ. eigenvalues --  -10.18734 -10.17537 -10.16728 -10.15934 -10.14259
 Alpha  occ. eigenvalues --  -10.13837 -10.13183  -1.10052  -1.00973  -0.99239
 Alpha  occ. eigenvalues --   -0.82312  -0.77982  -0.71975  -0.71442  -0.64905
 Alpha  occ. eigenvalues --   -0.59837  -0.59190  -0.58151  -0.56728  -0.53778
 Alpha  occ. eigenvalues --   -0.49969  -0.48423  -0.47159  -0.45893  -0.45170
 Alpha  occ. eigenvalues --   -0.43306  -0.40150  -0.39835  -0.39276  -0.37494
 Alpha  occ. eigenvalues --   -0.36614  -0.34205  -0.33413  -0.32137  -0.31633
 Alpha  occ. eigenvalues --   -0.31225  -0.27014  -0.23293  -0.22396  -0.03728
 Alpha virt. eigenvalues --    0.01024   0.02665   0.04619   0.08797   0.09798
 Alpha virt. eigenvalues --    0.10894   0.11314   0.13679   0.14436   0.15236
 Alpha virt. eigenvalues --    0.17572   0.18202   0.19374   0.20061   0.21329

  Beta  occ. eigenvalues --  -19.19221 -19.13470 -14.45168 -10.31425 -10.18686
  Beta  occ. eigenvalues --  -10.18381 -10.17568 -10.16851 -10.16071 -10.13878
  Beta  occ. eigenvalues --  -10.13389 -10.12797  -1.10032  -1.00945  -0.99066
  Beta  occ. eigenvalues --   -0.81741  -0.77736  -0.71502  -0.70769  -0.64615
  Beta  occ. eigenvalues --   -0.59760  -0.58845  -0.57706  -0.56383  -0.53606
  Beta  occ. eigenvalues --   -0.49661  -0.48377  -0.47042  -0.45618  -0.44948
  Beta  occ. eigenvalues --   -0.43136  -0.40018  -0.39654  -0.39147  -0.37172
  Beta  occ. eigenvalues --   -0.36336  -0.34081  -0.32057  -0.31889  -0.31489
  Beta  occ. eigenvalues --   -0.31018  -0.26898  -0.21922  -0.19520
  Beta virt. eigenvalues --    0.01206   0.02966   0.04058   0.04825   0.08841
  Beta virt. eigenvalues --    0.09924   0.11370   0.11906   0.13777   0.14516
  Beta virt. eigenvalues --    0.15518   0.17995   0.19120   0.19863   0.20714

 Mulliken charges and spin densities:
               1          2
     1  C   -0.203491   0.300640
     2  C   -0.114286  -0.115403
     3  C   -0.196550   0.362065
     4  C    0.078669   0.254577
     5  C   -0.140334  -0.102435
     6  C    0.042307   0.261163
     7  H    0.026737  -0.016554
     8  H    0.057228   0.003316
     9  H    0.047498  -0.019946
    10  H    0.069827   0.003508
    11  C   -0.245414  -0.018776
    12  H    0.098998   0.003389
    13  H    0.088805   0.007551
    14  C   -0.225555   0.016112
    15  H    0.117785  -0.001352
    16  H    0.131962   0.000002
    17  N   -0.569175  -0.016771
    18  H    0.343463   0.028418
    19  H    0.342396   0.031661
    20  C    0.552528   0.013546
    21  O   -0.515122   0.004686
    22  O   -0.484096   0.000047
    23  H    0.337494   0.000417
    24  H    0.358326   0.000139
 Sum of Mulliken charges =  -0.00000   1.00000

 Dipole moment (field-independent basis, Debye):
    X=              8.4782    Y=             -9.8286    Z=             -0.5258  Tot=             12.9907
 There are a total of      542350 grid points.
 ElSum from          density=       89.0000068725
 ElSum from atomic densities=       89.0000299670
 Hirshfeld populations at iteration   1 (CA, CB, DipXYZ):
               1          2          3          4          5
     1  C    3.173808   2.969932  -0.036942  -0.005609   0.008142
     2  C    3.042787   3.039153   0.029428   0.060681  -0.005536
     3  C    3.199503   2.963495   0.024903  -0.023258  -0.006165
     4  C    3.121755   2.924043   0.110179  -0.112954  -0.021748
     5  C    3.043186   3.041491  -0.024272  -0.059565   0.003071

 Normal termination of Gaussian 16 at Tue Nov 30 02:27:22 2021.
