 Gaussian 16, Revision A.03,
 Gaussian 16:  ES64L-G16RevA.03 25-Dec-2016

 ----------------------------------------------------------------------
 #t B3LYP/6-31G(d,p) # SCRF=(Solvent=ethanol) # Gfinput IOP(6/7=3) Pop=
 hirshfeld Density Test # Units(Ang,Deg)
 ----------------------------------------------------------------------
 -------------------------------
 e-aptms-1p-nh2_opt_freq_g09.log
 -------------------------------
 Symbolic Z-matrix:
 Charge =  2 Multiplicity = 2

                         Standard orientation:
 ---------------------------------------------------------------------
 Center     Atomic      Atomic             Coordinates (Angstroms)
 Number     Number       Type             X           Y           Z
 ---------------------------------------------------------------------
      1         14           0        0.750201   -0.043671   -0.143108
      2          6           0       -0.955739   -0.704811   -0.531438
      3          1           0       -1.052589   -0.762231   -1.622648
      4          1           0       -1.014459   -1.736271   -0.160798
      5          6           0       -2.110529    0.126109    0.057212
      6          1           0       -2.069089    1.149699   -0.332488
      7          1           0       -2.006149    0.188939    1.146252
      8          6           0       -3.456339   -0.499481   -0.292798
      9          1           0       -3.552289   -1.509231    0.109282
     10          1           0       -3.623209   -0.530121   -1.370608
     11          7           0       -4.604939    0.296969    0.290512
     12          1           0       -4.602029    1.264039   -0.046608
     13          1           0       -5.509789   -0.111421    0.039632
     14          8           0        0.851041    1.481089   -0.765428
     15          8           0        1.963281   -0.909031   -0.867398
     16          8           0        0.886591   -0.095721    1.506752
     17          1           0       -4.558349    0.330189    1.313192
     18          6           0        2.005161    0.392199    2.250672
     19          1           0        1.995101    1.486879    2.297152
     20          1           0        1.935291   -0.001061    3.267992
     21          1           0        2.956201    0.065439    1.815112
     22          6           0        2.295831   -2.256901   -0.531568
     23          1           0        2.395661   -2.391231    0.551212
     24          1           0        1.536241   -2.953711   -0.904518
     25          1           0        3.251201   -2.499251   -1.003578
     26          6           0        2.049781    2.198749   -1.064388
     27          1           0        2.786281    1.557099   -1.557708
     28          1           0        1.792640    3.023129   -1.734478
     29          1           0        2.494820    2.615829   -0.153998
 ---------------------------------------------------------------------

 SCF Done:  E(UB3LYP) =  -809.108435601     A.U. after   25 cycles

 The electronic state is 2-A.
 Alpha  occ. eigenvalues --  -66.25438 -19.26649 -19.26439 -19.23856 -14.48820
 Alpha  occ. eigenvalues --  -10.28742 -10.28693 -10.27775 -10.27575 -10.23289
 Alpha  occ. eigenvalues --  -10.21647  -5.39239  -3.75307  -3.75253  -3.74917
 Alpha  occ. eigenvalues --   -1.12223  -1.10155  -1.08238  -1.03068  -0.83013
 Alpha  occ. eigenvalues --   -0.76642  -0.74426  -0.73421  -0.72724  -0.65160
 Alpha  occ. eigenvalues --   -0.61290  -0.60486  -0.59399  -0.56170  -0.55436
 Alpha  occ. eigenvalues --   -0.53415  -0.52242  -0.52009  -0.51294  -0.50778
 Alpha  occ. eigenvalues --   -0.49686  -0.49444  -0.48543  -0.44140  -0.43146
 Alpha  occ. eigenvalues --   -0.41304  -0.41098  -0.39883  -0.39196  -0.38340
 Alpha  occ. eigenvalues --   -0.37784  -0.37551  -0.37077  -0.34640
 Alpha virt. eigenvalues --    0.00392   0.01387   0.02880   0.03952   0.05390
 Alpha virt. eigenvalues --    0.07515   0.08027   0.08265   0.09108   0.10331
 Alpha virt. eigenvalues --    0.10775   0.11992   0.12086   0.12711   0.13008

  Beta  occ. eigenvalues --  -66.25458 -19.25779 -19.25609 -19.23297 -14.48820
  Beta  occ. eigenvalues --  -10.28715 -10.28676 -10.27775 -10.27567 -10.23287
  Beta  occ. eigenvalues --  -10.21649  -5.39265  -3.75338  -3.75290  -3.74942
  Beta  occ. eigenvalues --   -1.10459  -1.08154  -1.06829  -1.03068  -0.83002
  Beta  occ. eigenvalues --   -0.76273  -0.73774  -0.72975  -0.72617  -0.65123
  Beta  occ. eigenvalues --   -0.61290  -0.60077  -0.59191  -0.55546  -0.54506
  Beta  occ. eigenvalues --   -0.53069  -0.51231  -0.50840  -0.50196  -0.49873
  Beta  occ. eigenvalues --   -0.48904  -0.48362  -0.47697  -0.44086  -0.43103
  Beta  occ. eigenvalues --   -0.40982  -0.40217  -0.38455  -0.38264  -0.37653
  Beta  occ. eigenvalues --   -0.35885  -0.35111  -0.33316
  Beta virt. eigenvalues --   -0.29098   0.00700   0.01441   0.03222   0.04270
  Beta virt. eigenvalues --    0.05570   0.07540   0.08057   0.08491   0.09284
  Beta virt. eigenvalues --    0.10457   0.10865   0.12049   0.12266   0.12824

 Mulliken charges and spin densities:
               1          2
     1  Si   1.121773  -0.071734
     2  C   -0.417570   0.000375
     3  H    0.168689   0.000241
     4  H    0.168538   0.002248
     5  C   -0.218864   0.001250
     6  H    0.155680   0.000429
     7  H    0.154407   0.000021
     8  C   -0.108596   0.000106
     9  H    0.192100   0.000016
    10  H    0.192504   0.000054
    11  N   -0.525745   0.000026
    12  H    0.380797   0.000001
    13  H    0.386511   0.000015
    14  O   -0.416054   0.331996
    15  O   -0.477289   0.216462
    16  O   -0.425600   0.318432
    17  H    0.381338  -0.000004
    18  C   -0.127228   0.003959
    19  H    0.199429   0.044287
    20  H    0.183143   0.004522
    21  H    0.182030   0.020114
    22  C   -0.112082  -0.000522
    23  H    0.171164   0.027338
    24  H    0.173753   0.019308
    25  H    0.166900  -0.000720
    26  C   -0.115076   0.011556
    27  H    0.183594   0.013827
    28  H    0.185452   0.010129
    29  H    0.196299   0.046266
 Sum of Mulliken charges =   2.00000   1.00000

 Dipole moment (field-independent basis, Debye):
    X=            -11.6856    Y=              1.6155    Z=              2.3773  Tot=             12.0339
 There are a total of      656904 grid points.
 ElSum from          density=       96.9999877198
 ElSum from atomic densities=       98.9999452497
 Hirshfeld populations at iteration   1 (CA, CB, DipXYZ):
               1          2          3          4          5
     1  Si   6.721637   6.717832   0.083686   0.036883   0.016711
     2  C    3.059543   3.059833  -0.089529  -0.027618  -0.017129
     3  H    0.470388   0.470500  -0.020915  -0.014141  -0.166193
     4  H    0.471183   0.469774  -0.017004  -0.157724   0.050950
     5  C    3.015869   3.015002  -0.015154  -0.016889  -0.011536

 Normal termination of Gaussian 16 at Mon Jan 24 09:14:46 2022.
