 Gaussian 16, Revision A.03,
 Gaussian 16:  ES64L-G16RevA.03 25-Dec-2016

 ----------------------------------------------------------------------
 #t B3LYP/6-31G(d,p) # SCRF=(Solvent=ethanol) # Gfinput IOP(6/7=3) Pop=
 hirshfeld Density Test # Units(Ang,Deg)
 ----------------------------------------------------------------------
 -------------------------------
 e-aptms-1p-nh2_opt_freq_g09.log
 -------------------------------
 Symbolic Z-matrix:
 Charge =  1 Multiplicity = 1

                         Standard orientation:
 ---------------------------------------------------------------------
 Center     Atomic      Atomic             Coordinates (Angstroms)
 Number     Number       Type             X           Y           Z
 ---------------------------------------------------------------------
      1         14           0        0.750201   -0.043671   -0.143108
      2          6           0       -0.955739   -0.704811   -0.531438
      3          1           0       -1.052589   -0.762231   -1.622648
      4          1           0       -1.014459   -1.736271   -0.160798
      5          6           0       -2.110529    0.126109    0.057212
      6          1           0       -2.069089    1.149699   -0.332488
      7          1           0       -2.006149    0.188939    1.146252
      8          6           0       -3.456339   -0.499481   -0.292798
      9          1           0       -3.552289   -1.509231    0.109282
     10          1           0       -3.623209   -0.530121   -1.370608
     11          7           0       -4.604939    0.296969    0.290512
     12          1           0       -4.602029    1.264039   -0.046608
     13          1           0       -5.509789   -0.111421    0.039632
     14          8           0        0.851041    1.481089   -0.765428
     15          8           0        1.963281   -0.909031   -0.867398
     16          8           0        0.886591   -0.095721    1.506752
     17          1           0       -4.558349    0.330189    1.313192
     18          6           0        2.005161    0.392199    2.250672
     19          1           0        1.995101    1.486879    2.297152
     20          1           0        1.935291   -0.001061    3.267992
     21          1           0        2.956201    0.065439    1.815112
     22          6           0        2.295831   -2.256901   -0.531568
     23          1           0        2.395661   -2.391231    0.551212
     24          1           0        1.536241   -2.953711   -0.904518
     25          1           0        3.251201   -2.499251   -1.003578
     26          6           0        2.049781    2.198749   -1.064388
     27          1           0        2.786281    1.557099   -1.557708
     28          1           0        1.792640    3.023129   -1.734478
     29          1           0        2.494820    2.615829   -0.153998
 ---------------------------------------------------------------------

 SCF Done:  E(RB3LYP) =  -809.394672375     A.U. after   11 cycles

 The electronic state is 1-A.
 Alpha  occ. eigenvalues --  -66.18576 -19.15120 -19.15082 -19.15055 -14.48168
 Alpha  occ. eigenvalues --  -10.26796 -10.23680 -10.23642 -10.23505 -10.21623
 Alpha  occ. eigenvalues --  -10.18697  -5.32281  -3.68306  -3.68294  -3.68056
 Alpha  occ. eigenvalues --   -1.02737  -1.02415  -1.00134  -0.99983  -0.81310
 Alpha  occ. eigenvalues --   -0.72095  -0.69466  -0.68384  -0.68177  -0.63504
 Alpha  occ. eigenvalues --   -0.60657  -0.58652  -0.53828  -0.51522  -0.49362
 Alpha  occ. eigenvalues --   -0.48623  -0.48084  -0.46191  -0.45389  -0.44975
 Alpha  occ. eigenvalues --   -0.43993  -0.43848  -0.43110  -0.42040  -0.41281
 Alpha  occ. eigenvalues --   -0.38629  -0.36189  -0.34679  -0.34144  -0.31828
 Alpha  occ. eigenvalues --   -0.31114  -0.29862  -0.28920  -0.28109
 Alpha virt. eigenvalues --    0.01918   0.05089   0.07079   0.07898   0.08234
 Alpha virt. eigenvalues --    0.08643   0.08884   0.11166   0.11686   0.12273
 Alpha virt. eigenvalues --    0.13135   0.13447   0.15058   0.15246   0.15852

 Mulliken charges:
               1
     1  Si   1.062065
     2  C   -0.399834
     3  H    0.137571
     4  H    0.136649
     5  C   -0.209592
     6  H    0.142714
     7  H    0.142209
     8  C   -0.110244
     9  H    0.184953
    10  H    0.185244
    11  N   -0.525905
    12  H    0.378418
    13  H    0.382876
    14  O   -0.573677
    15  O   -0.577945
    16  O   -0.576007
    17  H    0.378932
    18  C   -0.080963
    19  H    0.121488
    20  H    0.121713
    21  H    0.118036
    22  C   -0.079930
    23  H    0.118104
    24  H    0.118536
    25  H    0.122020
    26  C   -0.075877
    27  H    0.122370
    28  H    0.119142
    29  H    0.116934
 Sum of Mulliken charges =   1.00000

 Dipole moment (field-independent basis, Debye):
    X=            -18.3944    Y=              0.2319    Z=              1.8082  Tot=             18.4845
 There are a total of      656904 grid points.
 ElSum from          density=       97.9999885249
 ElSum from atomic densities=       98.9999452497
 Hirshfeld populations at iteration   1 (CA, CB, DipXYZ):
               1          2          3          4          5
     1  Si   6.752312   6.752312   0.043292  -0.000127   0.006112
     2  C    3.064812   3.064812  -0.085758  -0.019187  -0.010625
     3  H    0.477622   0.477622  -0.018275  -0.012339  -0.156298
     4  H    0.477783   0.477783  -0.013580  -0.147810   0.049297
     5  C    3.017663   3.017663  -0.013157  -0.015983  -0.010914

 Normal termination of Gaussian 16 at Mon Jan 24 09:16:23 2022.
