 Gaussian 16, Revision A.03,
 Gaussian 16:  ES64L-G16RevA.03 25-Dec-2016

 ----------------------------------------------------------------------
 #t B3LYP/6-31G(d,p) # SCRF=(Solvent=ethanol) # Gfinput IOP(6/7=3) Pop=
 hirshfeld Density Test # Units(Ang,Deg)
 ----------------------------------------------------------------------
 -------------------------------
 e-aptms-1p-nh2_opt_freq_g09.log
 -------------------------------
 Symbolic Z-matrix:
 Charge =  0 Multiplicity = 2

                         Standard orientation:
 ---------------------------------------------------------------------
 Center     Atomic      Atomic             Coordinates (Angstroms)
 Number     Number       Type             X           Y           Z
 ---------------------------------------------------------------------
      1         14           0        0.750201   -0.043671   -0.143108
      2          6           0       -0.955739   -0.704811   -0.531438
      3          1           0       -1.052589   -0.762231   -1.622648
      4          1           0       -1.014459   -1.736271   -0.160798
      5          6           0       -2.110529    0.126109    0.057212
      6          1           0       -2.069089    1.149699   -0.332488
      7          1           0       -2.006149    0.188939    1.146252
      8          6           0       -3.456339   -0.499481   -0.292798
      9          1           0       -3.552289   -1.509231    0.109282
     10          1           0       -3.623209   -0.530121   -1.370608
     11          7           0       -4.604939    0.296969    0.290512
     12          1           0       -4.602029    1.264039   -0.046608
     13          1           0       -5.509789   -0.111421    0.039632
     14          8           0        0.851041    1.481089   -0.765428
     15          8           0        1.963281   -0.909031   -0.867398
     16          8           0        0.886591   -0.095721    1.506752
     17          1           0       -4.558349    0.330189    1.313192
     18          6           0        2.005161    0.392199    2.250672
     19          1           0        1.995101    1.486879    2.297152
     20          1           0        1.935291   -0.001061    3.267992
     21          1           0        2.956201    0.065439    1.815112
     22          6           0        2.295831   -2.256901   -0.531568
     23          1           0        2.395661   -2.391231    0.551212
     24          1           0        1.536241   -2.953711   -0.904518
     25          1           0        3.251201   -2.499251   -1.003578
     26          6           0        2.049781    2.198749   -1.064388
     27          1           0        2.786281    1.557099   -1.557708
     28          1           0        1.792640    3.023129   -1.734478
     29          1           0        2.494820    2.615829   -0.153998
 ---------------------------------------------------------------------

 SCF Done:  E(UB3LYP) =  -809.391733150     A.U. after   19 cycles

 The electronic state is 2-A.
 Alpha  occ. eigenvalues --  -66.17670 -19.14527 -19.14493 -19.14483 -14.38638
 Alpha  occ. eigenvalues --  -10.23283 -10.23263 -10.23121 -10.22386 -10.18926
 Alpha  occ. eigenvalues --  -10.16996  -5.31396  -3.67427  -3.67413  -3.67153
 Alpha  occ. eigenvalues --   -1.02175  -0.99584  -0.99440  -0.95624  -0.78207
 Alpha  occ. eigenvalues --   -0.70205  -0.68053  -0.67765  -0.67339  -0.60279
 Alpha  occ. eigenvalues --   -0.54054  -0.53162  -0.52308  -0.48446  -0.48079
 Alpha  occ. eigenvalues --   -0.47136  -0.45649  -0.45232  -0.44893  -0.44439
 Alpha  occ. eigenvalues --   -0.43423  -0.43300  -0.42667  -0.39049  -0.38550
 Alpha  occ. eigenvalues --   -0.36422  -0.34080  -0.33865  -0.33156  -0.31162
 Alpha  occ. eigenvalues --   -0.30436  -0.29317  -0.28093  -0.27583  -0.01261
 Alpha virt. eigenvalues --    0.05773   0.07999   0.08819   0.09436   0.09980
 Alpha virt. eigenvalues --    0.10246   0.12037   0.12743   0.13869   0.14834
 Alpha virt. eigenvalues --    0.15091   0.15673   0.15841   0.16623   0.17389

  Beta  occ. eigenvalues --  -66.17670 -19.14527 -19.14489 -19.14483 -14.37717
  Beta  occ. eigenvalues --  -10.23283 -10.23263 -10.23121 -10.22298 -10.18897
  Beta  occ. eigenvalues --  -10.16953  -5.31395  -3.67426  -3.67413  -3.67152
  Beta  occ. eigenvalues --   -1.02172  -0.99584  -0.99436  -0.94454  -0.77911
  Beta  occ. eigenvalues --   -0.70108  -0.68027  -0.67762  -0.67026  -0.60037
  Beta  occ. eigenvalues --   -0.53241  -0.53086  -0.51466  -0.48432  -0.48052
  Beta  occ. eigenvalues --   -0.46664  -0.45503  -0.45022  -0.44819  -0.44421
  Beta  occ. eigenvalues --   -0.43416  -0.43276  -0.42663  -0.38843  -0.38389
  Beta  occ. eigenvalues --   -0.36240  -0.34049  -0.33826  -0.33115  -0.31152
  Beta  occ. eigenvalues --   -0.30420  -0.29314  -0.28063  -0.27582
  Beta virt. eigenvalues --    0.05665   0.06088   0.08095   0.08858   0.09495
  Beta virt. eigenvalues --    0.11536   0.12064   0.12757   0.13118   0.14079
  Beta virt. eigenvalues --    0.15454   0.15691   0.15939   0.16415   0.16794

 Mulliken charges and spin densities:
               1          2
     1  Si   1.048902   0.003897
     2  C   -0.395816   0.015669
     3  H    0.122329  -0.000620
     4  H    0.121936  -0.000567
     5  C   -0.178337   0.005779
     6  H    0.107016   0.011140
     7  H    0.106926   0.010717
     8  C   -0.099285   0.071218
     9  H    0.113304   0.022992
    10  H    0.113886   0.022611
    11  N   -0.144075  -0.238756
    12  H    0.000195   0.351200
    13  H   -0.011120   0.367559
    14  O   -0.573325  -0.000105
    15  O   -0.579695   0.000161
    16  O   -0.575536  -0.000100
    17  H   -0.003877   0.356027
    18  C   -0.080041   0.000071
    19  H    0.119901   0.000006
    20  H    0.119915  -0.000006
    21  H    0.115287   0.000042
    22  C   -0.078195   0.000411
    23  H    0.116273   0.000011
    24  H    0.116737   0.000513
    25  H    0.119180   0.000035
    26  C   -0.075053   0.000060
    27  H    0.120033   0.000034
    28  H    0.117636  -0.000004
    29  H    0.114900   0.000005
 Sum of Mulliken charges =  -0.00000   1.00000

 Dipole moment (field-independent basis, Debye):
    X=              3.2382    Y=             -1.4065    Z=              0.2470  Tot=              3.5391
 There are a total of      656904 grid points.
 ElSum from          density=       98.9999895226
 ElSum from atomic densities=       98.9999452497
 Hirshfeld populations at iteration   1 (CA, CB, DipXYZ):
               1          2          3          4          5
     1  Si   6.757176   6.754470   0.054476   0.008335   0.011888
     2  C    3.076123   3.063196  -0.083927  -0.018136  -0.009865
     3  H    0.482090   0.480864  -0.018464  -0.010526  -0.150777
     4  H    0.482183   0.480883  -0.013657  -0.142258   0.048939
     5  C    3.042920   3.013684   0.010303  -0.038282  -0.026488

 Normal termination of Gaussian 16 at Mon Jan 24 09:12:36 2022.
