 Gaussian 16, Revision A.03,
 Gaussian 16:  ES64L-G16RevA.03 25-Dec-2016

 ----------------------------------------------------------------------
 #t B3LYP/6-31G(d,p) # SCRF=(Solvent=ethanol) # Gfinput IOP(6/7=3) Pop=
 hirshfeld Density Test # Units(Ang,Deg)
 ----------------------------------------------------------------------
 -----------------------------------
 e-aptms-alc-1p-nh2_opt_freq_g09.log
 -----------------------------------
 Symbolic Z-matrix:
 Charge =  1 Multiplicity = 1

                         Standard orientation:
 ---------------------------------------------------------------------
 Center     Atomic      Atomic             Coordinates (Angstroms)
 Number     Number       Type             X           Y           Z
 ---------------------------------------------------------------------
      1         14           0       -1.466240    0.000259   -0.010930
      2          6           0        0.207699    0.830830   -0.054920
      3          1           0        0.264559    1.423090   -0.977130
      4          1           0        0.259679    1.548610    0.773350
      5          6           0        1.391400   -0.149229    0.018760
      6          1           0        1.335790   -0.861239   -0.812580
      7          1           0        1.334960   -0.729899    0.947020
      8          6           0        2.719809    0.595882   -0.036620
      9          1           0        2.834309    1.291072    0.796420
     10          1           0        2.841799    1.142722   -0.972800
     11          7           0        3.891350   -0.359777    0.048720
     12          1           0        3.877971   -1.041557   -0.715570
     13          1           0        4.784720    0.137894   -0.001290
     14          8           0       -1.700149   -0.986501    1.305540
     15          1           0       -1.876730   -0.538731    2.142590
     16          8           0       -1.546559   -0.997951   -1.328770
     17          1           0       -2.201249   -1.706521   -1.289920
     18          8           0       -2.561801    1.243458   -0.041650
     19          1           0       -3.496281    0.999308   -0.049120
     20          1           0        3.883020   -0.886897    0.926700
 ---------------------------------------------------------------------

 SCF Done:  E(RB3LYP) =  -691.497200594     A.U. after   12 cycles

 The electronic state is 1-A.
 Alpha  occ. eigenvalues --  -66.18856 -19.15543 -19.15506 -19.15386 -14.48157
 Alpha  occ. eigenvalues --  -10.26787 -10.21594 -10.18606  -5.32563  -3.68580
 Alpha  occ. eigenvalues --   -3.68575  -3.68343  -1.02418  -1.02234  -0.99422
 Alpha  occ. eigenvalues --   -0.99217  -0.81279  -0.71568  -0.63777  -0.60648
 Alpha  occ. eigenvalues --   -0.58924  -0.56711  -0.52202  -0.51523  -0.51359
 Alpha  occ. eigenvalues --   -0.48476  -0.43023  -0.41752  -0.40599  -0.38768
 Alpha  occ. eigenvalues --   -0.38244  -0.36099  -0.35784  -0.34935  -0.33521
 Alpha  occ. eigenvalues --   -0.31232  -0.30981
 Alpha virt. eigenvalues --    0.01929   0.03558   0.07293   0.07470   0.08312
 Alpha virt. eigenvalues --    0.08600   0.09034   0.11887   0.13039   0.13552
 Alpha virt. eigenvalues --    0.14469   0.15765   0.16243   0.17043   0.18864

 Mulliken charges:
               1
     1  Si   0.983556
     2  C   -0.400725
     3  H    0.140479
     4  H    0.138810
     5  C   -0.204923
     6  H    0.142820
     7  H    0.139350
     8  C   -0.109793
     9  H    0.184654
    10  H    0.185325
    11  N   -0.525509
    12  H    0.378602
    13  H    0.382976
    14  O   -0.622022
    15  H    0.346496
    16  O   -0.622421
    17  H    0.348916
    18  O   -0.615751
    19  H    0.350678
    20  H    0.378481
 Sum of Mulliken charges =   1.00000

 Dipole moment (field-independent basis, Debye):
    X=             15.0069    Y=             -1.5017    Z=              1.9298  Tot=             15.2048
 There are a total of      450994 grid points.
 ElSum from          density=       74.0000081269
 ElSum from atomic densities=       75.0000177108
 Hirshfeld populations at iteration   1 (CA, CB, DipXYZ):
               1          2          3          4          5
     1  Si   6.745944   6.745944  -0.094739  -0.016859   0.036632
     2  C    3.065632   3.065632   0.085779   0.023831  -0.000527
     3  H    0.477498   0.477498   0.013319   0.087604  -0.130334
     4  H    0.477867   0.477867   0.011910   0.103876   0.117859
     5  C    3.018005   3.018005   0.013088   0.020205  -0.001031

 Normal termination of Gaussian 16 at Wed Dec  1 16:18:04 2021.
