 Gaussian 16, Revision A.03,
 Gaussian 16:  ES64L-G16RevA.03 25-Dec-2016

 ----------------------------------------------------------------------
 #t B3LYP/6-31G(d,p) # SCRF=(Solvent=ethanol) # Gfinput IOP(6/7=3) Pop=
 hirshfeld Density Test # Units(Ang,Deg)
 ----------------------------------------------------------------------
 -----------------------------------
 e-aptms-alc-1p-nh2_opt_freq_g09.log
 -----------------------------------
 Symbolic Z-matrix:
 Charge =  0 Multiplicity = 2

                         Standard orientation:
 ---------------------------------------------------------------------
 Center     Atomic      Atomic             Coordinates (Angstroms)
 Number     Number       Type             X           Y           Z
 ---------------------------------------------------------------------
      1         14           0       -1.466240    0.000259   -0.010930
      2          6           0        0.207699    0.830830   -0.054920
      3          1           0        0.264559    1.423090   -0.977130
      4          1           0        0.259679    1.548610    0.773350
      5          6           0        1.391400   -0.149229    0.018760
      6          1           0        1.335790   -0.861239   -0.812580
      7          1           0        1.334960   -0.729899    0.947020
      8          6           0        2.719809    0.595882   -0.036620
      9          1           0        2.834309    1.291072    0.796420
     10          1           0        2.841799    1.142722   -0.972800
     11          7           0        3.891350   -0.359777    0.048720
     12          1           0        3.877971   -1.041557   -0.715570
     13          1           0        4.784720    0.137894   -0.001290
     14          8           0       -1.700149   -0.986501    1.305540
     15          1           0       -1.876730   -0.538731    2.142590
     16          8           0       -1.546559   -0.997951   -1.328770
     17          1           0       -2.201249   -1.706521   -1.289920
     18          8           0       -2.561801    1.243458   -0.041650
     19          1           0       -3.496281    0.999308   -0.049120
     20          1           0        3.883020   -0.886897    0.926700
 ---------------------------------------------------------------------

 SCF Done:  E(UB3LYP) =  -691.494144911     A.U. after   20 cycles

 The electronic state is 2-A.
 Alpha  occ. eigenvalues --  -66.17928 -19.14932 -19.14920 -19.14779 -14.38630
 Alpha  occ. eigenvalues --  -10.22383 -10.18896 -10.16906  -5.31657  -3.67677
 Alpha  occ. eigenvalues --   -3.67674  -3.67419  -1.01643  -0.98852  -0.98630
 Alpha  occ. eigenvalues --   -0.95632  -0.78154  -0.68258  -0.60599  -0.56080
 Alpha  occ. eigenvalues --   -0.54053  -0.52581  -0.51319  -0.50691  -0.46757
 Alpha  occ. eigenvalues --   -0.45462  -0.40367  -0.40203  -0.38709  -0.37488
 Alpha  occ. eigenvalues --   -0.36002  -0.35154  -0.34383  -0.33591  -0.32729
 Alpha  occ. eigenvalues --   -0.30649  -0.29703  -0.01255
 Alpha virt. eigenvalues --    0.04150   0.08067   0.08169   0.09924   0.10198
 Alpha virt. eigenvalues --    0.10543   0.14027   0.14723   0.14959   0.16432
 Alpha virt. eigenvalues --    0.16633   0.18075   0.18991   0.19618   0.21101

  Beta  occ. eigenvalues --  -66.17928 -19.14931 -19.14917 -19.14778 -14.37709
  Beta  occ. eigenvalues --  -10.22296 -10.18868 -10.16864  -5.31656  -3.67676
  Beta  occ. eigenvalues --   -3.67673  -3.67419  -1.01640  -0.98847  -0.98629
  Beta  occ. eigenvalues --   -0.94463  -0.77855  -0.67847  -0.60354  -0.56035
  Beta  occ. eigenvalues --   -0.53243  -0.51979  -0.51070  -0.50625  -0.46026
  Beta  occ. eigenvalues --   -0.45261  -0.40246  -0.40146  -0.38551  -0.37420
  Beta  occ. eigenvalues --   -0.35819  -0.35142  -0.34353  -0.33539  -0.32707
  Beta  occ. eigenvalues --   -0.30647  -0.29653
  Beta virt. eigenvalues --    0.04142   0.06017   0.08080   0.08263   0.10583
  Beta virt. eigenvalues --    0.11713   0.12631   0.14316   0.15714   0.16128
  Beta virt. eigenvalues --    0.16662   0.16745   0.18281   0.19608   0.19870

 Mulliken charges and spin densities:
               1          2
     1  Si   0.969159   0.004242
     2  C   -0.396881   0.015020
     3  H    0.125256  -0.000484
     4  H    0.123641  -0.000555
     5  C   -0.173535   0.005739
     6  H    0.107547   0.010706
     7  H    0.104080   0.010727
     8  C   -0.099254   0.071285
     9  H    0.113187   0.022757
    10  H    0.114089   0.022543
    11  N   -0.143534  -0.238877
    12  H   -0.000293   0.351793
    13  H   -0.010658   0.366976
    14  O   -0.623968  -0.000125
    15  H    0.344284   0.000125
    16  O   -0.623277  -0.000132
    17  H    0.345787   0.000172
    18  O   -0.616545  -0.000452
    19  H    0.345852   0.001654
    20  H   -0.004939   0.356886
 Sum of Mulliken charges =  -0.00000   1.00000

 Dipole moment (field-independent basis, Debye):
    X=             -3.2688    Y=              0.5160    Z=              1.6488  Tot=              3.6973
 There are a total of      450994 grid points.
 ElSum from          density=       75.0000081453
 ElSum from atomic densities=       75.0000177108
 Hirshfeld populations at iteration   1 (CA, CB, DipXYZ):
               1          2          3          4          5
     1  Si   6.751511   6.748772  -0.103366  -0.027186   0.037562
     2  C    3.076861   3.064170   0.083941   0.022467  -0.000495
     3  H    0.481988   0.480754   0.013709   0.083235  -0.126467
     4  H    0.482353   0.481148   0.012278   0.099033   0.114614
     5  C    3.043174   3.014089  -0.010961   0.046528  -0.003290

 Normal termination of Gaussian 16 at Wed Dec  1 16:16:23 2021.
