 Gaussian 16, Revision A.03,
 Gaussian 16:  ES64L-G16RevA.03 25-Dec-2016

 ----------------------------------------------------------------------
 #t B3LYP/6-31G(d,p) # SCRF=(Solvent=ethanol) # Gfinput IOP(6/7=3) Pop=
 hirshfeld Density Test # Units(Ang,Deg)
 ----------------------------------------------------------------------
 -----------------------------------
 e-aptms-alc-1p-nh2_opt_freq_g09.log
 -----------------------------------
 Symbolic Z-matrix:
 Charge =  2 Multiplicity = 2

                         Standard orientation:
 ---------------------------------------------------------------------
 Center     Atomic      Atomic             Coordinates (Angstroms)
 Number     Number       Type             X           Y           Z
 ---------------------------------------------------------------------
      1         14           0       -1.466240    0.000259   -0.010930
      2          6           0        0.207699    0.830830   -0.054920
      3          1           0        0.264559    1.423090   -0.977130
      4          1           0        0.259679    1.548610    0.773350
      5          6           0        1.391400   -0.149229    0.018760
      6          1           0        1.335790   -0.861239   -0.812580
      7          1           0        1.334960   -0.729899    0.947020
      8          6           0        2.719809    0.595882   -0.036620
      9          1           0        2.834309    1.291072    0.796420
     10          1           0        2.841799    1.142722   -0.972800
     11          7           0        3.891350   -0.359777    0.048720
     12          1           0        3.877971   -1.041557   -0.715570
     13          1           0        4.784720    0.137894   -0.001290
     14          8           0       -1.700149   -0.986501    1.305540
     15          1           0       -1.876730   -0.538731    2.142590
     16          8           0       -1.546559   -0.997951   -1.328770
     17          1           0       -2.201249   -1.706521   -1.289920
     18          8           0       -2.561801    1.243458   -0.041650
     19          1           0       -3.496281    0.999308   -0.049120
     20          1           0        3.883020   -0.886897    0.926700
 ---------------------------------------------------------------------

 SCF Done:  E(UB3LYP) =  -691.180987387     A.U. after   22 cycles

 The electronic state is 2-A.
 Alpha  occ. eigenvalues --  -66.28267 -19.25296 -19.24926 -19.24147 -14.49833
 Alpha  occ. eigenvalues --  -10.29800 -10.27763 -10.25887  -5.41914  -3.77925
 Alpha  occ. eigenvalues --   -3.77851  -3.77809  -1.10863  -1.08089  -1.07647
 Alpha  occ. eigenvalues --   -1.04117  -0.86318  -0.76952  -0.68123  -0.64550
 Alpha  occ. eigenvalues --   -0.62244  -0.61106  -0.59675  -0.59067  -0.54631
 Alpha  occ. eigenvalues --   -0.52883  -0.49190  -0.48282  -0.46582  -0.45717
 Alpha  occ. eigenvalues --   -0.44132  -0.43887  -0.43180  -0.41553  -0.40268
 Alpha  occ. eigenvalues --   -0.40181  -0.39679
 Alpha virt. eigenvalues --   -0.00921   0.00711   0.02436   0.02581   0.05554
 Alpha virt. eigenvalues --    0.06662   0.07386   0.08874   0.09648   0.10635
 Alpha virt. eigenvalues --    0.11223   0.11323   0.13249   0.13850   0.14082

  Beta  occ. eigenvalues --  -66.28253 -19.24699 -19.24369 -19.23674 -14.49823
  Beta  occ. eigenvalues --  -10.29723 -10.27340 -10.25880  -5.41902  -3.77880
  Beta  occ. eigenvalues --   -3.77863  -3.77763  -1.09531  -1.06603  -1.06304
  Beta  occ. eigenvalues --   -1.04068  -0.85654  -0.75982  -0.67687  -0.63948
  Beta  occ. eigenvalues --   -0.62225  -0.60928  -0.59166  -0.58544  -0.54203
  Beta  occ. eigenvalues --   -0.52582  -0.47563  -0.47339  -0.45842  -0.44706
  Beta  occ. eigenvalues --   -0.43492  -0.42148  -0.40585  -0.40081  -0.39547
  Beta  occ. eigenvalues --   -0.36926
  Beta virt. eigenvalues --   -0.32236  -0.00529   0.00782   0.02967   0.03068
  Beta virt. eigenvalues --    0.05805   0.06760   0.07475   0.09136   0.09942
  Beta virt. eigenvalues --    0.10936   0.11454   0.11578   0.13491   0.14078

 Mulliken charges and spin densities:
               1          2
     1  Si   1.095453   0.020794
     2  C   -0.387938   0.275014
     3  H    0.238143   0.014707
     4  H    0.231544   0.006570
     5  C   -0.232795  -0.002140
     6  H    0.187500   0.005359
     7  H    0.186231   0.007197
     8  C   -0.107910   0.033690
     9  H    0.210178  -0.000481
    10  H    0.210942  -0.000200
    11  N   -0.522959   0.003853
    12  H    0.387295  -0.000115
    13  H    0.394630   0.001238
    14  O   -0.481980   0.236162
    15  H    0.395748  -0.004646
    16  O   -0.486174   0.224260
    17  H    0.398832  -0.003507
    18  O   -0.500371   0.184987
    19  H    0.396482  -0.002625
    20  H    0.387147  -0.000118
 Sum of Mulliken charges =   2.00000   1.00000

 Dipole moment (field-independent basis, Debye):
    X=             10.6269    Y=             -1.2257    Z=              1.9883  Tot=             10.8806
 There are a total of      450994 grid points.
 ElSum from          density=       73.0000067137
 ElSum from atomic densities=       75.0000177108
 Hirshfeld populations at iteration   1 (CA, CB, DipXYZ):
               1          2          3          4          5
     1  Si   6.723939   6.649093  -0.067675   0.004736   0.028394
     2  C    3.124058   2.905939   0.042119   0.040122  -0.003392
     3  H    0.462578   0.436427   0.024374   0.110751  -0.146675
     4  H    0.462013   0.440966   0.021765   0.127865   0.130019
     5  C    3.018677   2.996289   0.015684   0.019316  -0.000469

 Normal termination of Gaussian 16 at Wed Dec  1 16:17:33 2021.
