 Gaussian 16, Revision A.03,
 Gaussian 16:  ES64L-G16RevA.03 25-Dec-2016

 ----------------------------------------------------------------------
 #t B3LYP/6-31G(d,p) # SCRF=(Solvent=water) # Gfinput IOP(6/7=3) Pop=hi
 rshfeld Density Test # Units(Ang,Deg)
 ----------------------------------------------------------------------
 --------------------------------
 w-appa-1dp-cooh_opt_freq_g09.log
 --------------------------------
 Symbolic Z-matrix:
 Charge =  0 Multiplicity = 2

                         Standard orientation:
 ---------------------------------------------------------------------
 Center     Atomic      Atomic             Coordinates (Angstroms)
 Number     Number       Type             X           Y           Z
 ---------------------------------------------------------------------
      1          6           0        1.052601    1.614830    0.186929
      2          6           0        2.401851    1.726731   -0.153871
      3          6           0        3.203621    0.594671   -0.287921
      4          6           0        2.653112   -0.682529   -0.078171
      5          6           0        1.294352   -0.783300    0.267269
      6          6           0        0.483421    0.349790    0.401419
      7          1           0        0.440321    2.506270    0.294799
      8          1           0        2.840261    2.709141   -0.310241
      9          1           0        4.254181    0.691321   -0.550101
     10          1           0        0.865112   -1.769140    0.437539
     11          6           0       -0.983849    0.205330    0.743359
     12          1           0       -1.136648   -0.648630    1.410829
     13          1           0       -1.319569    1.089650    1.297289
     14          6           0       -1.886539    0.018140   -0.487261
     15          1           0       -1.793559    0.876630   -1.164421
     16          1           0       -1.539998   -0.849250   -1.067611
     17          7           0        3.427942   -1.832989   -0.266821
     18          1           0        4.420702   -1.695449   -0.123391
     19          1           0        3.102022   -2.643729    0.244599
     20          6           0       -3.397898   -0.196710   -0.171551
     21          8           0       -4.169218   -0.134700   -1.167771
     22          8           0       -3.712338   -0.430000    1.027429
 ---------------------------------------------------------------------

 SCF Done:  E(UB3LYP) =  -554.154396194     A.U. after   32 cycles

 The electronic state is 2-A.
 Alpha  occ. eigenvalues --  -19.14416 -19.09556 -14.38484 -10.28741 -10.26717
 Alpha  occ. eigenvalues --  -10.22461 -10.22305 -10.22132 -10.21435 -10.20632
 Alpha  occ. eigenvalues --  -10.19851 -10.19659  -1.04677  -0.95336  -0.95314
 Alpha  occ. eigenvalues --   -0.87250  -0.80254  -0.75845  -0.74722  -0.66356
 Alpha  occ. eigenvalues --   -0.63073  -0.60438  -0.53857  -0.53090  -0.51234
 Alpha  occ. eigenvalues --   -0.50214  -0.47417  -0.45848  -0.44488  -0.44383
 Alpha  occ. eigenvalues --   -0.43191  -0.41800  -0.41538  -0.39342  -0.38006
 Alpha  occ. eigenvalues --   -0.37411  -0.36182  -0.34233  -0.33891  -0.28583
 Alpha  occ. eigenvalues --   -0.26756  -0.26623  -0.24699  -0.23677
 Alpha virt. eigenvalues --   -0.02737  -0.01998   0.04856   0.07610   0.09164
 Alpha virt. eigenvalues --    0.11407   0.12309   0.12692   0.13468   0.15556
 Alpha virt. eigenvalues --    0.16617   0.18041   0.18542   0.19870   0.22519

  Beta  occ. eigenvalues --  -19.13470 -19.09482 -14.38131 -10.28773 -10.26657
  Beta  occ. eigenvalues --  -10.22463 -10.22048 -10.21805 -10.21536 -10.20615
  Beta  occ. eigenvalues --  -10.19725 -10.19630  -1.03340  -0.94730  -0.94291
  Beta  occ. eigenvalues --   -0.86808  -0.79968  -0.75471  -0.74110  -0.65928
  Beta  occ. eigenvalues --   -0.62809  -0.60200  -0.53684  -0.52847  -0.50504
  Beta  occ. eigenvalues --   -0.49900  -0.47267  -0.45271  -0.44312  -0.44133
  Beta  occ. eigenvalues --   -0.42276  -0.41312  -0.40293  -0.39064  -0.37554
  Beta  occ. eigenvalues --   -0.36976  -0.35792  -0.34005  -0.32320  -0.26732
  Beta  occ. eigenvalues --   -0.26083  -0.23364  -0.21539
  Beta virt. eigenvalues --   -0.19069  -0.02052  -0.00592   0.05027   0.07795
  Beta virt. eigenvalues --    0.09290   0.11488   0.12401   0.13297   0.13583
  Beta virt. eigenvalues --    0.15832   0.16799   0.18125   0.18680   0.19975

 Mulliken charges and spin densities:
               1          2
     1  C   -0.089016   0.255145
     2  C   -0.099010  -0.091771
     3  C   -0.082038   0.195288
     4  C    0.272340   0.039419
     5  C   -0.132675   0.012059
     6  C    0.098313  -0.013870
     7  H    0.132515  -0.010367
     8  H    0.131836   0.002665
     9  H    0.138626  -0.008198
    10  H    0.120768  -0.001107
    11  C   -0.231837   0.012534
    12  H    0.125670  -0.000538
    13  H    0.119853  -0.000976
    14  C   -0.264389   0.067129
    15  H    0.126537  -0.003064
    16  H    0.136554  -0.002391
    17  N   -0.607883   0.167667
    18  H    0.309932  -0.003295
    19  H    0.310747  -0.002593
    20  C    0.566628  -0.015876
    21  O   -0.488313   0.376283
    22  O   -0.595156   0.025858
 Sum of Mulliken charges =  -0.00000   1.00000

 Dipole moment (field-independent basis, Debye):
    X=             18.1612    Y=             -0.1505    Z=              0.2445  Tot=             18.1635
 There are a total of      496324 grid points.
 ElSum from          density=       87.0000023116
 ElSum from atomic densities=       86.9999816448
 Hirshfeld populations at iteration   1 (CA, CB, DipXYZ):
               1          2          3          4          5
     1  C    3.082363   2.916885  -0.040313   0.052816   0.010546
     2  C    3.003009   3.018217   0.020502   0.068017  -0.009864
     3  C    3.072675   2.940870   0.065878  -0.014488  -0.012573
     4  C    2.988524   2.931497   0.061847  -0.061606   0.001521
     5  C    3.032765   3.017837  -0.006539  -0.051784   0.005767

 Normal termination of Gaussian 16 at Tue Nov 30 02:18:43 2021.
