 Gaussian 16, Revision A.03,
 Gaussian 16:  ES64L-G16RevA.03 25-Dec-2016

 ----------------------------------------------------------------------
 #p B3LYP/6-31G(d,p) scrf=(solvent=water) # SCRF=(Solvent=Water) # Gfin
 put IOP(6/7=3) Pop=chelp Density Test
 ----------------------------------------------------------------------

 --------------------------------
 w-appa-1dp-cooh_opt_freq_g09.log
 --------------------------------
 Symbolic Z-matrix:
 Charge = -1 Multiplicity = 1

                         Standard orientation:
 ---------------------------------------------------------------------
 Center     Atomic      Atomic             Coordinates (Angstroms)
 Number     Number       Type             X           Y           Z
 ---------------------------------------------------------------------
      1          6           0        1.052601    1.614830    0.186929
      2          6           0        2.401851    1.726731   -0.153871
      3          6           0        3.203621    0.594671   -0.287921
      4          6           0        2.653112   -0.682529   -0.078171
      5          6           0        1.294352   -0.783300    0.267269
      6          6           0        0.483421    0.349790    0.401419
      7          1           0        0.440321    2.506270    0.294799
      8          1           0        2.840261    2.709141   -0.310241
      9          1           0        4.254181    0.691321   -0.550101
     10          1           0        0.865112   -1.769140    0.437539
     11          6           0       -0.983849    0.205330    0.743359
     12          1           0       -1.136648   -0.648630    1.410829
     13          1           0       -1.319569    1.089650    1.297289
     14          6           0       -1.886539    0.018140   -0.487261
     15          1           0       -1.793559    0.876630   -1.164421
     16          1           0       -1.539998   -0.849250   -1.067611
     17          7           0        3.427942   -1.832989   -0.266821
     18          1           0        4.420702   -1.695449   -0.123391
     19          1           0        3.102022   -2.643729    0.244599
     20          6           0       -3.397898   -0.196710   -0.171551
     21          8           0       -4.169218   -0.134700   -1.167771
     22          8           0       -3.712338   -0.430000    1.027429
 ---------------------------------------------------------------------

 SCF Done:  E(RB3LYP) =  -554.241427598     A.U. after   17 cycles

 The electronic state is 1-A.
 Alpha  occ. eigenvalues --  -18.86620 -18.86084 -14.25006 -10.12475 -10.08481
 Alpha  occ. eigenvalues --  -10.07926 -10.07658 -10.07006 -10.06654 -10.05562
 Alpha  occ. eigenvalues --  -10.03614 -10.00858  -0.82290  -0.79445  -0.72928
 Alpha  occ. eigenvalues --   -0.70667  -0.65264  -0.61977  -0.58369  -0.50517
 Alpha  occ. eigenvalues --   -0.49347  -0.45595  -0.41221  -0.39638  -0.36986
 Alpha  occ. eigenvalues --   -0.33210  -0.31777  -0.30858  -0.28305  -0.27607
 Alpha  occ. eigenvalues --   -0.27538  -0.24406  -0.23119  -0.22525  -0.20055
 Alpha  occ. eigenvalues --   -0.19596  -0.18854  -0.16622  -0.14255  -0.12902
 Alpha  occ. eigenvalues --   -0.10189  -0.02284  -0.01724  -0.00559
 Alpha virt. eigenvalues --    0.11054   0.12249   0.16445   0.19904   0.21584
 Alpha virt. eigenvalues --    0.24886   0.25403   0.26497   0.27022   0.28126
 Alpha virt. eigenvalues --    0.29555   0.31106   0.31793   0.35917   0.37843

 Mulliken charges:
               1
     1  C   -0.129357
     2  C   -0.090573
     3  C   -0.125638
     4  C    0.268128
     5  C   -0.151249
     6  C    0.116781
     7  H    0.060683
     8  H    0.049120
     9  H    0.034245
    10  H    0.058459
    11  C   -0.219274
    12  H    0.092207
    13  H    0.079403
    14  C   -0.234041
    15  H    0.063972
    16  H    0.065387
    17  N   -0.661617
    18  H    0.236044
    19  H    0.244389
    20  C    0.523182
    21  O   -0.645429
    22  O   -0.634822
 Sum of Mulliken charges =  -1.00000

 Dipole moment (field-independent basis, Debye):
    X=             16.4418    Y=              0.1306    Z=              1.3721  Tot=             16.4995
 Quadrupole moment (field-independent basis, Debye-Ang):
   XX=           -140.6028   YY=            -67.2723   ZZ=            -83.0121
   XY=             -9.0092   XZ=             -0.1217   YZ=             -1.8922

 ESP charges:
               1
     1  C   -0.008870
     2  C   -0.226523
     3  C   -0.105647
     4  C    0.192687
     5  C   -0.182347
     6  C   -0.103612
     7  H    0.039577
     8  H    0.099654
     9  H    0.055120
    10  H    0.129940
    11  C    0.313510
    12  H   -0.091760
    13  H   -0.089248
    14  C    0.015116
    15  H   -0.052919
    16  H   -0.049641
    17  N   -0.662156
    18  H    0.304341
    19  H    0.247052
    20  C    0.621141
    21  O   -0.739130
    22  O   -0.706286
 Sum of ESP charges =  -1.00000

 Normal termination of Gaussian 16 at Fri Jan  7 14:02:26 2022.
