 Gaussian 16, Revision A.03,
 Gaussian 16:  ES64L-G16RevA.03 25-Dec-2016

 ----------------------------------------------------------------------
 #t B3LYP/6-31G(d,p) # SCRF=(Solvent=water) # Gfinput IOP(6/7=3) Pop=hi
 rshfeld Density Test # Units(Ang,Deg)
 ----------------------------------------------------------------------
 --------------------------------
 w-appa-1dp-cooh_opt_freq_g09.log
 --------------------------------
 Symbolic Z-matrix:
 Charge = -2 Multiplicity = 2

                         Standard orientation:
 ---------------------------------------------------------------------
 Center     Atomic      Atomic             Coordinates (Angstroms)
 Number     Number       Type             X           Y           Z
 ---------------------------------------------------------------------
      1          6           0        1.052601    1.614830    0.186929
      2          6           0        2.401851    1.726731   -0.153871
      3          6           0        3.203621    0.594671   -0.287921
      4          6           0        2.653112   -0.682529   -0.078171
      5          6           0        1.294352   -0.783300    0.267269
      6          6           0        0.483421    0.349790    0.401419
      7          1           0        0.440321    2.506270    0.294799
      8          1           0        2.840261    2.709141   -0.310241
      9          1           0        4.254181    0.691321   -0.550101
     10          1           0        0.865112   -1.769140    0.437539
     11          6           0       -0.983849    0.205330    0.743359
     12          1           0       -1.136648   -0.648630    1.410829
     13          1           0       -1.319569    1.089650    1.297289
     14          6           0       -1.886539    0.018140   -0.487261
     15          1           0       -1.793559    0.876630   -1.164421
     16          1           0       -1.539998   -0.849250   -1.067611
     17          7           0        3.427942   -1.832989   -0.266821
     18          1           0        4.420702   -1.695449   -0.123391
     19          1           0        3.102022   -2.643729    0.244599
     20          6           0       -3.397898   -0.196710   -0.171551
     21          8           0       -4.169218   -0.134700   -1.167771
     22          8           0       -3.712338   -0.430000    1.027429
 ---------------------------------------------------------------------

 SCF Done:  E(UB3LYP) =  -554.340119723     A.U. after   20 cycles

 The electronic state is 2-A.
 Alpha  occ. eigenvalues --  -19.03509 -19.03106 -14.30078 -10.21804 -10.16550
 Alpha  occ. eigenvalues --  -10.13555 -10.13490 -10.11586 -10.10345 -10.09885
 Alpha  occ. eigenvalues --  -10.09781 -10.09374  -0.96425  -0.87704  -0.87037
 Alpha  occ. eigenvalues --   -0.77357  -0.72341  -0.66578  -0.65766  -0.58842
 Alpha  occ. eigenvalues --   -0.54059  -0.52320  -0.46021  -0.45237  -0.44187
 Alpha  occ. eigenvalues --   -0.42120  -0.41073  -0.38047  -0.36484  -0.36205
 Alpha  occ. eigenvalues --   -0.35435  -0.33295  -0.32953  -0.32328  -0.31294
 Alpha  occ. eigenvalues --   -0.29502  -0.28388  -0.26948  -0.25704  -0.19765
 Alpha  occ. eigenvalues --   -0.19684  -0.17958  -0.17543  -0.15722   0.00322
 Alpha virt. eigenvalues --    0.07172   0.10653   0.11346   0.13407   0.15381
 Alpha virt. eigenvalues --    0.16449   0.17370   0.17616   0.21033   0.21167
 Alpha virt. eigenvalues --    0.22424   0.23151   0.23865   0.28037   0.30216

  Beta  occ. eigenvalues --  -19.03506 -19.03099 -14.30088 -10.21796 -10.16662
  Beta  occ. eigenvalues --  -10.13589 -10.13440 -10.11732 -10.09925 -10.09453
  Beta  occ. eigenvalues --  -10.09389 -10.08981  -0.96412  -0.87691  -0.87011
  Beta  occ. eigenvalues --   -0.76742  -0.71984  -0.65740  -0.65385  -0.58548
  Beta  occ. eigenvalues --   -0.53611  -0.51914  -0.45796  -0.45096  -0.43990
  Beta  occ. eigenvalues --   -0.41782  -0.40948  -0.37973  -0.36257  -0.36039
  Beta  occ. eigenvalues --   -0.35185  -0.32994  -0.32414  -0.32112  -0.31074
  Beta  occ. eigenvalues --   -0.29391  -0.28144  -0.26717  -0.24662  -0.19740
  Beta  occ. eigenvalues --   -0.18542  -0.17775  -0.15542  -0.14653
  Beta virt. eigenvalues --    0.07496   0.08319   0.10726   0.11482   0.13496
  Beta virt. eigenvalues --    0.15558   0.16581   0.17465   0.17891   0.21220
  Beta virt. eigenvalues --    0.22291   0.23415   0.23576   0.24067   0.28267

 Mulliken charges and spin densities:
               1          2
     1  C   -0.175455  -0.125680
     2  C   -0.207829   0.368747
     3  C   -0.235705   0.269241
     4  C    0.248559  -0.084107
     5  C   -0.286673   0.313062
     6  C    0.048303   0.293710
     7  H   -0.001441   0.004225
     8  H   -0.016748  -0.021359
     9  H   -0.016090  -0.016471
    10  H   -0.023937  -0.018005
    11  C   -0.200337  -0.023151
    12  H    0.038428   0.013402
    13  H    0.040426   0.003480
    14  C   -0.233886   0.015666
    15  H    0.052411   0.000897
    16  H    0.063952  -0.001567
    17  N   -0.697173  -0.002930
    18  H    0.244873   0.001722
    19  H    0.244116   0.002557
    20  C    0.481609   0.004515
    21  O   -0.694311   0.001481
    22  O   -0.673092   0.000563
 Sum of Mulliken charges =  -2.00000   1.00000

 Dipole moment (field-independent basis, Debye):
    X=             11.7179    Y=             -1.7329    Z=              1.1360  Tot=             11.8997
 There are a total of      496324 grid points.
 ElSum from          density=       89.0000018310
 ElSum from atomic densities=       86.9999816448
 Hirshfeld populations at iteration   1 (CA, CB, DipXYZ):
               1          2          3          4          5
     1  C    3.068025   3.067162  -0.034392   0.030908   0.004382
     2  C    3.219325   2.972795   0.021016  -0.002350  -0.004457
     3  C    3.202570   3.002001   0.002843   0.011598  -0.001513
     4  C    3.017999   2.999461   0.059442  -0.088951   0.003287
     5  C    3.207626   2.994365  -0.015338   0.016290   0.000966

 Normal termination of Gaussian 16 at Tue Nov 30 02:16:32 2021.
