 Gaussian 16, Revision A.03,
 Gaussian 16:  ES64L-G16RevA.03 25-Dec-2016

 ----------------------------------------------------------------------
 #t B3LYP/6-31G(d,p) # SCRF=(Solvent=water) # Gfinput IOP(6/7=3) Pop=hi
 rshfeld Density Test # Units(Ang,Deg)
 ----------------------------------------------------------------------
 --------------------------------
 w-appa-1dp-cooh_opt_freq_g09.log
 --------------------------------
 Symbolic Z-matrix:
 Charge = -1 Multiplicity = 1

                         Standard orientation:
 ---------------------------------------------------------------------
 Center     Atomic      Atomic             Coordinates (Angstroms)
 Number     Number       Type             X           Y           Z
 ---------------------------------------------------------------------
      1          6           0        1.052601    1.614830    0.186929
      2          6           0        2.401851    1.726731   -0.153871
      3          6           0        3.203621    0.594671   -0.287921
      4          6           0        2.653112   -0.682529   -0.078171
      5          6           0        1.294352   -0.783300    0.267269
      6          6           0        0.483421    0.349790    0.401419
      7          1           0        0.440321    2.506270    0.294799
      8          1           0        2.840261    2.709141   -0.310241
      9          1           0        4.254181    0.691321   -0.550101
     10          1           0        0.865112   -1.769140    0.437539
     11          6           0       -0.983849    0.205330    0.743359
     12          1           0       -1.136648   -0.648630    1.410829
     13          1           0       -1.319569    1.089650    1.297289
     14          6           0       -1.886539    0.018140   -0.487261
     15          1           0       -1.793559    0.876630   -1.164421
     16          1           0       -1.539998   -0.849250   -1.067611
     17          7           0        3.427942   -1.832989   -0.266821
     18          1           0        4.420702   -1.695449   -0.123391
     19          1           0        3.102022   -2.643729    0.244599
     20          6           0       -3.397898   -0.196710   -0.171551
     21          8           0       -4.169218   -0.134700   -1.167771
     22          8           0       -3.712338   -0.430000    1.027429
 ---------------------------------------------------------------------

 SCF Done:  E(RB3LYP) =  -554.345335267     A.U. after   13 cycles

 The electronic state is 1-A.
 Alpha  occ. eigenvalues --  -19.04414 -19.04012 -14.33245 -10.22969 -10.22168
 Alpha  occ. eigenvalues --  -10.18497 -10.18209 -10.17487 -10.17229 -10.16931
 Alpha  occ. eigenvalues --  -10.16671 -10.15495  -0.97326  -0.90897  -0.88589
 Alpha  occ. eigenvalues --   -0.83114  -0.76578  -0.72001  -0.70462  -0.62429
 Alpha  occ. eigenvalues --   -0.59355  -0.56794  -0.50247  -0.49346  -0.46800
 Alpha  occ. eigenvalues --   -0.45937  -0.44022  -0.41486  -0.40530  -0.40265
 Alpha  occ. eigenvalues --   -0.38747  -0.37186  -0.36443  -0.35184  -0.33948
 Alpha  occ. eigenvalues --   -0.33207  -0.32339  -0.30667  -0.29683  -0.23733
 Alpha  occ. eigenvalues --   -0.20515  -0.19999  -0.19091  -0.18603
 Alpha virt. eigenvalues --    0.00749   0.02159   0.09460   0.09721   0.11151
 Alpha virt. eigenvalues --    0.13196   0.14327   0.15426   0.15651   0.17937
 Alpha virt. eigenvalues --    0.18671   0.19962   0.20608   0.22213   0.25866

 Mulliken charges:
               1
     1  C   -0.155816
     2  C   -0.109824
     3  C   -0.141203
     4  C    0.258559
     5  C   -0.172630
     6  C    0.101635
     7  H    0.076637
     8  H    0.090012
     9  H    0.085659
    10  H    0.079215
    11  C   -0.220737
    12  H    0.089127
    13  H    0.084426
    14  C   -0.250569
    15  H    0.078250
    16  H    0.086589
    17  N   -0.678347
    18  H    0.274686
    19  H    0.274543
    20  C    0.498219
    21  O   -0.683640
    22  O   -0.664788
 Sum of Mulliken charges =  -1.00000

 Dipole moment (field-independent basis, Debye):
    X=             19.7143    Y=              0.0568    Z=              1.3792  Tot=             19.7625
 There are a total of      496324 grid points.
 ElSum from          density=       88.0000024684
 ElSum from atomic densities=       86.9999816448
 Hirshfeld populations at iteration   1 (CA, CB, DipXYZ):
               1          2          3          4          5
     1  C    3.039796   3.039796  -0.033046   0.040456   0.005359
     2  C    3.027456   3.027456   0.026497   0.062872  -0.010038
     3  C    3.041424   3.041424   0.054331  -0.006223  -0.011625
     4  C    2.982600   2.982600   0.055683  -0.074061   0.003743
     5  C    3.040771   3.040771  -0.011817  -0.043625   0.005429

 Normal termination of Gaussian 16 at Tue Nov 30 02:19:27 2021.
