 Gaussian 16, Revision A.03,
 Gaussian 16:  ES64L-G16RevA.03 25-Dec-2016

 ----------------------------------------------------------------------
 #P B3LYP/6-31G(d,p) # Opt=tight freq=raman SCRF=(Solvent=Water) # Gfin
 put IOP(6/7=3) Pop=full Density Test # Units(Ang,Deg)
 ----------------------------------------------------------------------

 -------------------
 Title Card Required
 -------------------
 Symbolic Z-matrix:
 Charge =  0 Multiplicity = 1

 SCF Done:  E(RB3LYP) =  -666.481223885     A.U. after   15 cycles
 SCF Done:  E(RB3LYP) =  -666.541023231     A.U. after   12 cycles
 SCF Done:  E(RB3LYP) =  -666.557178712     A.U. after   13 cycles
 SCF Done:  E(RB3LYP) =  -666.592981780     A.U. after   12 cycles
 SCF Done:  E(RB3LYP) =  -666.598127588     A.U. after   11 cycles
 SCF Done:  E(RB3LYP) =  -666.596772223     A.U. after   11 cycles
 SCF Done:  E(RB3LYP) =  -666.598728208     A.U. after   10 cycles
 SCF Done:  E(RB3LYP) =  -666.598821582     A.U. after   10 cycles
 SCF Done:  E(RB3LYP) =  -666.598835097     A.U. after    9 cycles
 SCF Done:  E(RB3LYP) =  -666.598844116     A.U. after   10 cycles
 SCF Done:  E(RB3LYP) =  -666.598845452     A.U. after    7 cycles
 SCF Done:  E(RB3LYP) =  -666.598845983     A.U. after    9 cycles
 SCF Done:  E(RB3LYP) =  -666.598845560     A.U. after    9 cycles
 SCF Done:  E(RB3LYP) =  -666.598845561     A.U. after    4 cycles
 SCF Done:  E(RB3LYP) =  -666.598845943     A.U. after    8 cycles
 SCF Done:  E(RB3LYP) =  -666.598845560     A.U. after    8 cycles
 SCF Done:  E(RB3LYP) =  -666.598845559     A.U. after    4 cycles
 SCF Done:  E(RB3LYP) =  -666.598845943     A.U. after    8 cycles
 SCF Done:  E(RB3LYP) =  -666.598845561     A.U. after    8 cycles
 Optimization completed on the basis of negligible forces.
    -- Stationary point found.
 Normal termination of Gaussian 16 at Mon Nov 29 20:08:29 2021.

 ----------------------------------------------------------------------
 #P Geom=AllCheck Guess=TCheck SCRF=Check Test GenChk RB3LYP/6-31G(d,p)
  Freq
 ----------------------------------------------------------------------

 Structure from the checkpoint file:  "/home/rheinheimer/Programs/gaussian/scrgauss/Gau-2793716.chk"
 -------------------
 Title Card Required
 -------------------
 Charge =  0 Multiplicity = 1

                         Standard orientation:
 ---------------------------------------------------------------------
 Center     Atomic      Atomic             Coordinates (Angstroms)
 Number     Number       Type             X           Y           Z
 ---------------------------------------------------------------------
      1          6           0       -1.656469   -0.151019   -0.029756
      2          6           0       -0.211805   -0.537774   -0.274908
      3          1           0       -0.074766   -1.540523    0.135585
      4          1           0       -0.079543   -0.608613   -1.362262
      5          6           0        0.802206    0.450727    0.307640
      6          1           0        0.671890    1.438130   -0.135150
      7          1           0        0.685803    0.530223    1.390366
      8          8           0       -2.545142   -0.932748    0.241012
      9          8           0       -1.868674    1.172680   -0.179541
     10          1           0       -2.816493    1.333175   -0.026425
     11         16           0        2.509171   -0.156389   -0.064549
     12          1           0        3.173305    0.858772    0.521060
 ---------------------------------------------------------------------

 SCF Done:  E(RB3LYP) =  -666.598845561     A.U. after    1 cycles

 The electronic state is 1-A.
 Alpha  occ. eigenvalues --  -88.88073 -19.20261 -19.14653 -10.33077 -10.22766
 Alpha  occ. eigenvalues --  -10.21174  -7.94334  -5.90822  -5.90478  -5.89802
 Alpha  occ. eigenvalues --   -1.11158  -1.02082  -0.81753  -0.73811  -0.63789
 Alpha  occ. eigenvalues --   -0.60685  -0.50022  -0.49134  -0.47679  -0.44173
 Alpha  occ. eigenvalues --   -0.42518  -0.39737  -0.38452  -0.37241  -0.33685
 Alpha  occ. eigenvalues --   -0.32483  -0.28182  -0.24602
 Alpha virt. eigenvalues --   -0.00236   0.02648   0.06809   0.08672   0.12570
 Alpha virt. eigenvalues --    0.13765   0.14429   0.17814   0.20510   0.22982
 Alpha virt. eigenvalues --    0.29671   0.32453   0.34932   0.37039   0.37693

 Mulliken charges:
               1
     1  C    0.576730
     2  C   -0.257526
     3  H    0.151159
     4  H    0.167237
     5  C   -0.329453
     6  H    0.167084
     7  H    0.161674
     8  O   -0.499001
     9  O   -0.477917
    10  H    0.346912
    11  S   -0.101051
    12  H    0.094151
 Sum of Mulliken charges =  -0.00000

 Dipole moment (field-independent basis, Debye):
    X=             -0.0853    Y=              3.0023    Z=              0.3743  Tot=              3.0267
 Quadrupole moment (field-independent basis, Debye-Ang):
   XX=            -45.6429   YY=            -43.4070   ZZ=            -42.5561
   XY=             -3.4909   XZ=              3.3450   YZ=              2.3778

  Exact polarizability:  84.323   1.096  62.951  -2.369   0.908  48.042
 Approx polarizability:  89.878   5.293  77.468  -3.788  -0.215  56.365

                      1                      2                      3
                      A                      A                      A
 Frequencies --     28.1232                83.2076               160.6193
 Red. masses --      2.5190                 4.2983                 1.5173
 Frc consts  --      0.0012                 0.0175                 0.0231
 IR Inten    --      2.1536                 6.2397                20.3991
 Raman Activ --      1.3388                 0.5923                 8.3927

                      4                      5                      6
                      A                      A                      A
 Frequencies --    169.5207               259.6874               436.5275
 Red. masses --      2.0804                 9.8329                 3.5333
 Frc consts  --      0.0352                 0.3907                 0.3967
 IR Inten    --     11.8768                 1.1971                 7.7021
 Raman Activ --      3.9250                 2.5457                 4.6855

                      7                      8                      9
                      A                      A                      A
 Frequencies --    554.2271               601.3017               676.0205
 Red. masses --      1.9669                 2.4345                 1.8839
 Frc consts  --      0.3560                 0.5186                 0.5073
 IR Inten    --     56.6541               100.5750               102.1398
 Raman Activ --      9.5661                 6.0015                11.4996

                     10                     11                     12
                      A                      A                      A
 Frequencies --    753.0097               787.9865               842.7667
 Red. masses --      2.8107                 1.5235                 1.6864
 Frc consts  --      0.9390                 0.5573                 0.7057
 IR Inten    --      4.5571                19.3328                 6.3465
 Raman Activ --     28.9083                 1.8617                21.6210

                     13                     14                     15
                      A                      A                      A
 Frequencies --    917.2997              1003.4115              1077.4865
 Red. masses --      2.1083                 1.6164                 2.7401
 Frc consts  --      1.0452                 0.9589                 1.8743
 IR Inten    --     15.3725                13.0931                23.3338
 Raman Activ --     25.3101                 7.8524                15.4969

                     16                     17                     18
                      A                      A                      A
 Frequencies --   1144.4096              1211.6472              1265.3346
 Red. masses --      1.4505                 1.5816                 1.2322
 Frc consts  --      1.1192                 1.3680                 1.1624
 IR Inten    --    147.2475               171.7708                41.6031
 Raman Activ --      4.7029                 4.4987                 7.1707

                     19                     20                     21
                      A                      A                      A
 Frequencies --   1308.4968              1363.3844              1381.7037
 Red. masses --      1.1529                 1.4642                 2.5329
 Frc consts  --      1.1630                 1.6036                 2.8490
 IR Inten    --      4.2384                 3.2911               129.1877
 Raman Activ --     27.7481                 2.1768                 3.3558

                     22                     23                     24
                      A                      A                      A
 Frequencies --   1474.5328              1499.1865              1814.5198
 Red. masses --      1.0798                 1.0964                10.1336
 Frc consts  --      1.3833                 1.4518                19.6580
 IR Inten    --      7.2765                 5.2049               496.2622
 Raman Activ --     31.3495                12.2289                 9.9027

                     25                     26                     27
                      A                      A                      A
 Frequencies --   2691.2969              3054.6276              3095.7813
 Red. masses --      1.0386                 1.0670                 1.0589
 Frc consts  --      4.4324                 5.8656                 5.9794
 IR Inten    --     10.1262                 7.8481                23.1367
 Raman Activ --    329.7249               204.8598               145.7513

                     28                     29                     30
                      A                      A                      A
 Frequencies --   3128.2152              3162.6425              3739.1010
 Red. masses --      1.0971                 1.1082                 1.0645
 Frc consts  --      6.3253                 6.5307                 8.7689
 IR Inten    --      5.5708                11.6184                98.6654
 Raman Activ --    171.0668                64.9122               205.4261

 - Thermochemistry -
 -------------------
 Temperature   298.150 Kelvin.  Pressure   1.00000 Atm.
 Atom     1 has atomic number  6 and mass  12.00000

 Molecular mass:   106.00885 amu.
 Principal axes and moments of inertia in atomic units:
                           1         2         3
     Eigenvalues --   208.000721530.942391684.06796
           X            0.99998   0.00103   0.00650
           Y           -0.00127   0.99932   0.03673
           Z           -0.00645  -0.03674   0.99930
 This molecule is an asymmetric top.
 Rotational symmetry number  1.
 Rotational temperatures (Kelvin)      0.41641     0.05658     0.05143
 Rotational constants (GHZ):           8.67661     1.17884     1.07166
 Zero-point vibrational energy     237375.4 (Joules/Mol)
                                   56.73409 (Kcal/Mol)
 Warning -- explicit consideration of   8 degrees of freedom as
           vibrations may cause significant error
 Vibrational temperatures:     40.46   119.72   231.10   243.90   373.63
          (Kelvin)            628.07   797.41   865.14   972.64  1083.41
                             1133.74  1212.55  1319.79  1443.69  1550.26
                             1646.55  1743.29  1820.53  1882.63  1961.61
                             1987.96  2121.52  2157.00  2610.69  3872.18
                             4394.93  4454.14  4500.80  4550.34  5379.73

 Zero-point correction=                           0.090412 (Hartree/Particle)
 Thermal correction to Energy=                    0.097791
 Thermal correction to Enthalpy=                  0.098735
 Thermal correction to Gibbs Free Energy=         0.057212
 Sum of electronic and zero-point Energies=           -666.508434
 Sum of electronic and thermal Energies=              -666.501055
 Sum of electronic and thermal Enthalpies=            -666.500111
 Sum of electronic and thermal Free Energies=         -666.541633

                     E (Thermal)             CV                S
                      KCal/Mol        Cal/Mol-Kelvin    Cal/Mol-Kelvin
 Total                   61.365             24.150             87.391
 Electronic               0.000              0.000              0.000
 Translational            0.889              2.981             39.892
 Rotational               0.889              2.981             27.774
 Vibrational             59.587             18.189             19.725
 Vibration     1          0.593              1.984              5.958
 Vibration     2          0.600              1.961              3.814
 Vibration     3          0.622              1.891              2.542
 Vibration     4          0.625              1.880              2.441
 Vibration     5          0.668              1.746              1.664
 Vibration     6          0.797              1.391              0.838
 Vibration     7          0.910              1.130              0.535
 Vibration     8          0.960              1.029              0.447

 Optimization completed.
    -- Stationary point found.
 Normal termination of Gaussian 16 at Mon Nov 29 20:09:53 2021.
