 Gaussian 16, Revision A.03,
 Gaussian 16:  ES64L-G16RevA.03 25-Dec-2016

 ----------------------------------------------------------------------
 #t B3LYP/6-31G(d,p) # SCRF=(Solvent=water) # Gfinput IOP(6/7=3) Pop=hi
 rshfeld Density Test # Units(Ang,Deg)
 ----------------------------------------------------------------------
 -------------------
 Title Card Required
 -------------------
 Symbolic Z-matrix:
 Charge = -1 Multiplicity = 2

                         Standard orientation:
 ---------------------------------------------------------------------
 Center     Atomic      Atomic             Coordinates (Angstroms)
 Number     Number       Type             X           Y           Z
 ---------------------------------------------------------------------
      1          6           0       -1.656471   -0.151019   -0.029759
      2          6           0       -0.211802   -0.537770   -0.274909
      3          1           0       -0.074772   -1.540520    0.135591
      4          1           0       -0.079542   -0.608610   -1.362259
      5          6           0        0.802209    0.450730    0.307641
      6          1           0        0.671889    1.438130   -0.135149
      7          1           0        0.685799    0.530220    1.390371
      8          8           0       -2.545142   -0.932749    0.241011
      9          8           0       -1.868671    1.172681   -0.179539
     10          1           0       -2.816491    1.333171   -0.026429
     11         16           0        2.509169   -0.156391   -0.064549
     12          1           0        3.173309    0.858769    0.521061
 ---------------------------------------------------------------------

 SCF Done:  E(UB3LYP) =  -666.600910923     A.U. after   18 cycles

 The electronic state is 2-A.
 Alpha  occ. eigenvalues --  -88.83750 -19.13885 -19.06285 -10.22868 -10.17252
 Alpha  occ. eigenvalues --  -10.16294  -7.89758  -5.86217  -5.85936  -5.85350
 Alpha  occ. eigenvalues --   -1.04651  -0.95103  -0.77002  -0.68895  -0.59075
 Alpha  occ. eigenvalues --   -0.55717  -0.44843  -0.43649  -0.42344  -0.39262
 Alpha  occ. eigenvalues --   -0.37807  -0.35093  -0.33057  -0.32845  -0.29959
 Alpha  occ. eigenvalues --   -0.27271  -0.21860  -0.21148  -0.00469
 Alpha virt. eigenvalues --    0.04723   0.09660   0.11168   0.14780   0.15868
 Alpha virt. eigenvalues --    0.16542   0.20824   0.24126   0.27887   0.34565
 Alpha virt. eigenvalues --    0.35849   0.37784   0.39477   0.39973   0.45773

  Beta  occ. eigenvalues --  -88.83679 -19.13731 -19.05886 -10.22320 -10.16841
  Beta  occ. eigenvalues --  -10.16335  -7.89686  -5.86024  -5.85843  -5.85308
  Beta  occ. eigenvalues --   -1.04107  -0.94421  -0.76438  -0.68307  -0.58362
  Beta  occ. eigenvalues --   -0.55359  -0.44169  -0.43181  -0.41644  -0.37887
  Beta  occ. eigenvalues --   -0.37116  -0.34750  -0.32466  -0.32413  -0.28980
  Beta  occ. eigenvalues --   -0.25323  -0.21476  -0.20851
  Beta virt. eigenvalues --    0.05823   0.08755   0.10589   0.11585   0.15202
  Beta virt. eigenvalues --    0.16398   0.16682   0.21246   0.24751   0.29217
  Beta virt. eigenvalues --    0.35102   0.36557   0.38285   0.39688   0.40199

 Mulliken charges and spin densities:
               1          2
     1  C    0.406477   0.340575
     2  C   -0.203098  -0.023058
     3  H    0.087077   0.000450
     4  H    0.036866   0.080933
     5  C   -0.256382   0.074764
     6  H    0.103997   0.006573
     7  H    0.073072   0.028776
     8  O   -0.624629   0.124650
     9  O   -0.528396   0.025899
    10  H    0.295507   0.003630
    11  S   -0.411694   0.297921
    12  H    0.021202   0.038886
 Sum of Mulliken charges =  -1.00000   1.00000

 Dipole moment (field-independent basis, Debye):
    X=             -0.9348    Y=              3.5048    Z=              0.5435  Tot=              3.6678
 There are a total of      267594 grid points.
 ElSum from          density=       56.9999954332
 ElSum from atomic densities=       55.9999937711
 Hirshfeld populations at iteration   1 (CA, CB, DipXYZ):
               1          2          3          4          5
     1  C    3.082628   2.839929  -0.004649   0.083254  -0.052224
     2  C    3.071778   3.022149  -0.012859   0.023965   0.017079
     3  H    0.497437   0.488227   0.002984  -0.123342   0.049742
     4  H    0.534292   0.480681  -0.031478  -0.005742  -0.093291
     5  C    3.100413   2.994679  -0.015651   0.000083  -0.008946

 Normal termination of Gaussian 16 at Mon Nov 29 23:40:15 2021.
