 Gaussian 16, Revision A.03,
 Gaussian 16:  ES64L-G16RevA.03 25-Dec-2016

 ----------------------------------------------------------------------
 #t B3LYP/6-31G(d,p) # SCRF=(Solvent=water) # Gfinput IOP(6/7=3) Pop=hi
 rshfeld Density Test # Units(Ang,Deg)
 ----------------------------------------------------------------------
 -------------------
 Title Card Required
 -------------------
 Symbolic Z-matrix:
 Charge =  1 Multiplicity = 2

                         Standard orientation:
 ---------------------------------------------------------------------
 Center     Atomic      Atomic             Coordinates (Angstroms)
 Number     Number       Type             X           Y           Z
 ---------------------------------------------------------------------
      1          6           0       -1.656471   -0.151019   -0.029759
      2          6           0       -0.211802   -0.537770   -0.274909
      3          1           0       -0.074772   -1.540520    0.135591
      4          1           0       -0.079542   -0.608610   -1.362259
      5          6           0        0.802209    0.450730    0.307641
      6          1           0        0.671889    1.438130   -0.135149
      7          1           0        0.685799    0.530220    1.390371
      8          8           0       -2.545142   -0.932749    0.241011
      9          8           0       -1.868671    1.172681   -0.179539
     10          1           0       -2.816491    1.333171   -0.026429
     11         16           0        2.509169   -0.156391   -0.064549
     12          1           0        3.173309    0.858769    0.521061
 ---------------------------------------------------------------------

 SCF Done:  E(UB3LYP) =  -666.348044330     A.U. after   19 cycles

 The electronic state is 2-A.
 Alpha  occ. eigenvalues --  -89.04344 -19.21449 -19.15969 -10.34709 -10.29094
 Alpha  occ. eigenvalues --  -10.23964  -8.10196  -6.07084  -6.06217  -6.05842
 Alpha  occ. eigenvalues --   -1.12375  -1.03295  -0.90395  -0.81012  -0.69653
 Alpha  occ. eigenvalues --   -0.63071  -0.54526  -0.53106  -0.50064  -0.48631
 Alpha  occ. eigenvalues --   -0.47654  -0.44815  -0.41822  -0.41166  -0.40909
 Alpha  occ. eigenvalues --   -0.38333  -0.33653  -0.29697
 Alpha virt. eigenvalues --   -0.05650  -0.01643  -0.00289   0.07437   0.10022
 Alpha virt. eigenvalues --    0.10782   0.12283   0.14593   0.17088   0.20402
 Alpha virt. eigenvalues --    0.26859   0.27585   0.29091   0.30082   0.31875

  Beta  occ. eigenvalues --  -89.03757 -19.21446 -19.15969 -10.34712 -10.29088
  Beta  occ. eigenvalues --  -10.23968  -8.09617  -6.05846  -6.05496  -6.05206
  Beta  occ. eigenvalues --   -1.12373  -1.03294  -0.88335  -0.79697  -0.68861
  Beta  occ. eigenvalues --   -0.62993  -0.53982  -0.52223  -0.49917  -0.48205
  Beta  occ. eigenvalues --   -0.47100  -0.44018  -0.41319  -0.40896  -0.40065
  Beta  occ. eigenvalues --   -0.33650  -0.29670
  Beta virt. eigenvalues --   -0.25421  -0.05037  -0.01170   0.00940   0.07491
  Beta virt. eigenvalues --    0.10178   0.11123   0.12382   0.14743   0.17273
  Beta virt. eigenvalues --    0.20489   0.27025   0.28476   0.30486   0.32411

 Mulliken charges and spin densities:
               1          2
     1  C    0.594969  -0.001371
     2  C   -0.277799  -0.000870
     3  H    0.185513   0.001252
     4  H    0.201277   0.001445
     5  C   -0.421500  -0.025523
     6  H    0.255893   0.034409
     7  H    0.254659   0.035272
     8  O   -0.481314  -0.000115
     9  O   -0.474992   0.000704
    10  H    0.356979   0.000094
    11  S    0.613941   0.985095
    12  H    0.192374  -0.030390
 Sum of Mulliken charges =   1.00000   1.00000

 Dipole moment (field-independent basis, Debye):
    X=             10.0273    Y=              2.9735    Z=              0.5292  Tot=             10.4722
 There are a total of      267594 grid points.
 ElSum from          density=       54.9999963055
 ElSum from atomic densities=       55.9999937711
 Hirshfeld populations at iteration   1 (CA, CB, DipXYZ):
               1          2          3          4          5
     1  C    2.884413   2.885070   0.026884   0.070392  -0.015779
     2  C    3.018328   3.015563  -0.010743   0.009638   0.003721
     3  H    0.468532   0.466776   0.023212  -0.154162   0.057706
     4  H    0.464868   0.462900   0.014702  -0.017235  -0.168782
     5  C    3.012696   2.971274   0.027665   0.006192   0.012104

 Normal termination of Gaussian 16 at Mon Nov 29 23:40:35 2021.
