 Gaussian 16, Revision A.03,
 Gaussian 16:  ES64L-G16RevA.03 25-Dec-2016

 ----------------------------------------------------------------------
 #t B3LYP/6-31G(d,p) # SCRF=(Solvent=water) # Gfinput IOP(6/7=3) Pop=hi
 rshfeld Density Test # Units(Ang,Deg)
 ----------------------------------------------------------------------
 -------------------
 Title Card Required
 -------------------
 Symbolic Z-matrix:
 Charge =  0 Multiplicity = 1

                         Standard orientation:
 ---------------------------------------------------------------------
 Center     Atomic      Atomic             Coordinates (Angstroms)
 Number     Number       Type             X           Y           Z
 ---------------------------------------------------------------------
      1          6           0       -1.656471   -0.151019   -0.029759
      2          6           0       -0.211802   -0.537770   -0.274909
      3          1           0       -0.074772   -1.540520    0.135591
      4          1           0       -0.079542   -0.608610   -1.362259
      5          6           0        0.802209    0.450730    0.307641
      6          1           0        0.671889    1.438130   -0.135149
      7          1           0        0.685799    0.530220    1.390371
      8          8           0       -2.545142   -0.932749    0.241011
      9          8           0       -1.868671    1.172681   -0.179539
     10          1           0       -2.816491    1.333171   -0.026429
     11         16           0        2.509169   -0.156391   -0.064549
     12          1           0        3.173309    0.858769    0.521061
 ---------------------------------------------------------------------

 SCF Done:  E(RB3LYP) =  -666.598845561     A.U. after   12 cycles

 The electronic state is 1-A.
 Alpha  occ. eigenvalues --  -88.88073 -19.20261 -19.14653 -10.33078 -10.22766
 Alpha  occ. eigenvalues --  -10.21174  -7.94334  -5.90822  -5.90478  -5.89802
 Alpha  occ. eigenvalues --   -1.11158  -1.02082  -0.81753  -0.73811  -0.63789
 Alpha  occ. eigenvalues --   -0.60685  -0.50022  -0.49134  -0.47679  -0.44173
 Alpha  occ. eigenvalues --   -0.42518  -0.39737  -0.38453  -0.37241  -0.33685
 Alpha  occ. eigenvalues --   -0.32483  -0.28182  -0.24602
 Alpha virt. eigenvalues --   -0.00236   0.02648   0.06809   0.08672   0.12570
 Alpha virt. eigenvalues --    0.13765   0.14429   0.17814   0.20510   0.22982
 Alpha virt. eigenvalues --    0.29671   0.32453   0.34932   0.37039   0.37693

 Mulliken charges:
               1
     1  C    0.576728
     2  C   -0.257526
     3  H    0.151157
     4  H    0.167237
     5  C   -0.329452
     6  H    0.167085
     7  H    0.161673
     8  O   -0.498999
     9  O   -0.477915
    10  H    0.346911
    11  S   -0.101049
    12  H    0.094151
 Sum of Mulliken charges =  -0.00000

 Dipole moment (field-independent basis, Debye):
    X=             -0.0853    Y=              3.0023    Z=              0.3743  Tot=              3.0267
 There are a total of      267594 grid points.
 ElSum from          density=       55.9999962361
 ElSum from atomic densities=       55.9999937711
 Hirshfeld populations at iteration   1 (CA, CB, DipXYZ):
               1          2          3          4          5
     1  C    2.888871   2.888871   0.020280   0.076012  -0.012348
     2  C    3.022996   3.022996  -0.018224   0.011868   0.004483
     3  H    0.476021   0.476021   0.015591  -0.141765   0.053522
     4  H    0.472189   0.472189   0.006730  -0.014997  -0.155488
     5  C    3.019325   3.019325  -0.002455  -0.007959   0.002269

 Normal termination of Gaussian 16 at Mon Nov 29 23:40:47 2021.
