 Gaussian 16, Revision A.03,
 Gaussian 16:  ES64L-G16RevA.03 25-Dec-2016

 ----------------------------------------------------------------------
 #p B3LYP/6-31G(d,p) scrf=(solvent=water) # SCRF=(Solvent=Water) # Gfin
 put IOP(6/7=3) Pop=chelp Density Test
 ----------------------------------------------------------------------

 ----------------------
 w-mpa_opt_freq_g09.log
 ----------------------
 Symbolic Z-matrix:
 Charge =  0 Multiplicity = 1

                         Standard orientation:
 ---------------------------------------------------------------------
 Center     Atomic      Atomic             Coordinates (Angstroms)
 Number     Number       Type             X           Y           Z
 ---------------------------------------------------------------------
      1          6           0       -1.656471   -0.151019   -0.029759
      2          6           0       -0.211802   -0.537770   -0.274909
      3          1           0       -0.074772   -1.540520    0.135591
      4          1           0       -0.079542   -0.608610   -1.362259
      5          6           0        0.802209    0.450730    0.307641
      6          1           0        0.671889    1.438130   -0.135149
      7          1           0        0.685799    0.530220    1.390371
      8          8           0       -2.545142   -0.932749    0.241011
      9          8           0       -1.868671    1.172681   -0.179539
     10          1           0       -2.816491    1.333171   -0.026429
     11         16           0        2.509169   -0.156391   -0.064549
     12          1           0        3.173309    0.858769    0.521061
 ---------------------------------------------------------------------

 SCF Done:  E(RB3LYP) =  -666.589466137     A.U. after   14 cycles

 The electronic state is 1-A.
 Alpha  occ. eigenvalues --  -88.88068 -19.20768 -19.14496 -10.33035 -10.23282
 Alpha  occ. eigenvalues --  -10.21682  -7.94313  -5.90819  -5.90466  -5.89748
 Alpha  occ. eigenvalues --   -1.11490  -1.02090  -0.82169  -0.74068  -0.64216
 Alpha  occ. eigenvalues --   -0.61264  -0.50307  -0.49271  -0.47839  -0.44530
 Alpha  occ. eigenvalues --   -0.42750  -0.40191  -0.38643  -0.37801  -0.33675
 Alpha  occ. eigenvalues --   -0.32507  -0.27963  -0.24330
 Alpha virt. eigenvalues --   -0.00360   0.02410   0.06420   0.07003   0.11718
 Alpha virt. eigenvalues --    0.12820   0.13819   0.17221   0.19987   0.22522
 Alpha virt. eigenvalues --    0.29446   0.32441   0.35326   0.37231   0.38267

 Mulliken charges:
               1
     1  C    0.559129
     2  C   -0.254786
     3  H    0.154482
     4  H    0.155898
     5  C   -0.332728
     6  H    0.160002
     7  H    0.146046
     8  O   -0.458689
     9  O   -0.473889
    10  H    0.326852
    11  S   -0.042912
    12  H    0.060595
 Sum of Mulliken charges =   0.00000

 Dipole moment (field-independent basis, Debye):
    X=             -0.0796    Y=              2.4360    Z=              0.2823  Tot=              2.4536
 Quadrupole moment (field-independent basis, Debye-Ang):
   XX=            -45.0277   YY=            -43.3905   ZZ=            -42.6768
   XY=             -3.2561   XZ=              2.8503   YZ=              2.1845

 ESP charges:
               1
     1  C    0.625636
     2  C    0.074683
     3  H   -0.037975
     4  H    0.011873
     5  C    0.242322
     6  H   -0.053257
     7  H   -0.042643
     8  O   -0.519028
     9  O   -0.526648
    10  H    0.372613
    11  S   -0.314839
    12  H    0.167262
 Sum of ESP charges =   0.00000

 Normal termination of Gaussian 16 at Fri Jan  7 14:19:16 2022.
