 Gaussian 16, Revision A.03,
 Gaussian 16:  ES64L-G16RevA.03 25-Dec-2016

 ----------------------------------------------------------------------
 #t B3LYP/6-31G(d,p) # SCRF=(Solvent=water) # Gfinput IOP(6/7=3) Pop=hi
 rshfeld Density Test # Units(Ang,Deg)
 ----------------------------------------------------------------------
 -------------------
 Title Card Required
 -------------------
 Symbolic Z-matrix:
 Charge = -1 Multiplicity = 1

                         Standard orientation:
 ---------------------------------------------------------------------
 Center     Atomic      Atomic             Coordinates (Angstroms)
 Number     Number       Type             X           Y           Z
 ---------------------------------------------------------------------
      1          6           0       -1.745513   -0.010381   -0.005888
      2          6           0       -0.283352   -0.560500   -0.022028
      3          1           0       -0.174602   -1.272850    0.805092
      4          1           0       -0.153662   -1.144900   -0.942718
      5          6           0        0.774327    0.532160    0.064502
      6          1           0        0.659567    1.238850   -0.757808
      7          1           0        0.685687    1.083320    1.002172
      8          8           0       -2.648492   -0.886652    0.030162
      9         16           0        2.474097   -0.215089   -0.019678
     10          1           0        3.185287    0.927512    0.069292
     11          8           0       -1.884083    1.241879   -0.040248
 ---------------------------------------------------------------------

 SCF Done:  E(RB3LYP) =  -666.113944062     A.U. after   13 cycles

 The electronic state is 1-A.
 Alpha  occ. eigenvalues --  -88.86741 -19.04883 -19.04484 -10.23586 -10.20258
 Alpha  occ. eigenvalues --  -10.16400  -7.92993  -5.89474  -5.89125  -5.88490
 Alpha  occ. eigenvalues --   -0.97876  -0.89178  -0.78216  -0.69308  -0.59200
 Alpha  occ. eigenvalues --   -0.47467  -0.44882  -0.41772  -0.38539  -0.37180
 Alpha  occ. eigenvalues --   -0.36806  -0.34372  -0.31687  -0.31622  -0.23516
 Alpha  occ. eigenvalues --   -0.20908  -0.19810  -0.19148
 Alpha virt. eigenvalues --    0.03647   0.07821   0.09382   0.13560   0.15839
 Alpha virt. eigenvalues --    0.16001   0.21805   0.23046   0.28463   0.34933
 Alpha virt. eigenvalues --    0.35264   0.37249   0.38473   0.39606   0.47150

 Mulliken charges:
               1
     1  C    0.500962
     2  C   -0.269201
     3  H    0.097337
     4  H    0.101200
     5  C   -0.291454
     6  H    0.134342
     7  H    0.132691
     8  O   -0.672058
     9  S   -0.155276
    10  H    0.079279
    11  O   -0.657822
 Sum of Mulliken charges =  -1.00000

 Dipole moment (field-independent basis, Debye):
    X=              9.3188    Y=              0.6802    Z=              0.1557  Tot=              9.3448
 There are a total of      244430 grid points.
 ElSum from          density=       55.9999982285
 ElSum from atomic densities=       54.9999959627
 Hirshfeld populations at iteration   1 (CA, CB, DipXYZ):
               1          2          3          4          5
     1  C    2.947363   2.947363   0.084085  -0.019774   0.000318
     2  C    3.041552   3.041552  -0.003111   0.030528   0.000618
     3  H    0.490503   0.490503   0.005449  -0.086321   0.104442
     4  H    0.489576   0.489576   0.004791  -0.071108  -0.116374
     5  C    3.025268   3.025268   0.009806  -0.012456   0.001212

 Normal termination of Gaussian 16 at Mon Nov 29 23:36:54 2021.
