 Gaussian 16, Revision A.03,
 Gaussian 16:  ES64L-G16RevA.03 25-Dec-2016

 ----------------------------------------------------------------------
 #p B3LYP/6-31G(d,p) scrf=(solvent=water) # SCRF=(Solvent=Water) # Gfin
 put IOP(6/7=3) Pop=chelp Density Test
 ----------------------------------------------------------------------

 -------------------------------
 w-mpa-1dp-cooh_opt_freq_g09.log
 -------------------------------
 Symbolic Z-matrix:
 Charge = -1 Multiplicity = 1

                         Standard orientation:
 ---------------------------------------------------------------------
 Center     Atomic      Atomic             Coordinates (Angstroms)
 Number     Number       Type             X           Y           Z
 ---------------------------------------------------------------------
      1          6           0       -1.745513   -0.010381   -0.005888
      2          6           0       -0.283352   -0.560500   -0.022028
      3          1           0       -0.174602   -1.272850    0.805092
      4          1           0       -0.153662   -1.144900   -0.942718
      5          6           0        0.774327    0.532160    0.064502
      6          1           0        0.659567    1.238850   -0.757808
      7          1           0        0.685687    1.083320    1.002172
      8          8           0       -2.648492   -0.886652    0.030162
      9         16           0        2.474097   -0.215089   -0.019678
     10          1           0        3.185287    0.927512    0.069292
     11          8           0       -1.884083    1.241879   -0.040248
 ---------------------------------------------------------------------

 SCF Done:  E(RB3LYP) =  -666.017886447     A.U. after   15 cycles

 The electronic state is 1-A.
 Alpha  occ. eigenvalues --  -88.74280 -18.87342 -18.86706 -10.06864 -10.06311
 Alpha  occ. eigenvalues --  -10.01571  -7.80505  -5.77013  -5.76624  -5.75989
 Alpha  occ. eigenvalues --   -0.80193  -0.71461  -0.64859  -0.55562  -0.45272
 Alpha  occ. eigenvalues --   -0.32503  -0.30830  -0.26929  -0.23544  -0.21780
 Alpha  occ. eigenvalues --   -0.21299  -0.18400  -0.17164  -0.14990  -0.10797
 Alpha  occ. eigenvalues --   -0.02926  -0.02415  -0.01288
 Alpha virt. eigenvalues --    0.15919   0.19819   0.26068   0.26946   0.29271
 Alpha virt. eigenvalues --    0.29676   0.36352   0.37011   0.43245   0.47702
 Alpha virt. eigenvalues --    0.50134   0.50917   0.51071   0.55126   0.62586

 Mulliken charges:
               1
     1  C    0.522561
     2  C   -0.255937
     3  H    0.078809
     4  H    0.080420
     5  C   -0.277599
     6  H    0.126774
     7  H    0.119112
     8  O   -0.636223
     9  S   -0.142695
    10  H    0.015419
    11  O   -0.630641
 Sum of Mulliken charges =  -1.00000

 Dipole moment (field-independent basis, Debye):
    X=              7.5830    Y=              0.5292    Z=              0.1222  Tot=              7.6024
 Quadrupole moment (field-independent basis, Debye-Ang):
   XX=            -77.0419   YY=            -51.2208   ZZ=            -44.8858
   XY=              3.7135   XZ=              0.3612   YZ=              0.4193

 ESP charges:
               1
     1  C    0.734652
     2  C   -0.017541
     3  H   -0.058840
     4  H   -0.029497
     5  C    0.247987
     6  H   -0.049694
     7  H   -0.032531
     8  O   -0.770539
     9  S   -0.383475
    10  H    0.098297
    11  O   -0.738821
 Sum of ESP charges =  -1.00000

 Normal termination of Gaussian 16 at Fri Jan  7 14:25:47 2022.
