 Gaussian 16, Revision A.03,
 Gaussian 16:  ES64L-G16RevA.03 25-Dec-2016

 ----------------------------------------------------------------------
 #t B3LYP/6-31G(d,p) # SCRF=(Solvent=water) # Gfinput IOP(6/7=3) Pop=hi
 rshfeld Density Test # Units(Ang,Deg)
 ----------------------------------------------------------------------
 -------------------
 Title Card Required
 -------------------
 Symbolic Z-matrix:
 Charge = -2 Multiplicity = 2

                         Standard orientation:
 ---------------------------------------------------------------------
 Center     Atomic      Atomic             Coordinates (Angstroms)
 Number     Number       Type             X           Y           Z
 ---------------------------------------------------------------------
      1          6           0       -1.745513   -0.010381   -0.005888
      2          6           0       -0.283352   -0.560500   -0.022028
      3          1           0       -0.174602   -1.272850    0.805092
      4          1           0       -0.153662   -1.144900   -0.942718
      5          6           0        0.774327    0.532160    0.064502
      6          1           0        0.659567    1.238850   -0.757808
      7          1           0        0.685687    1.083320    1.002172
      8          8           0       -2.648492   -0.886652    0.030162
      9         16           0        2.474097   -0.215089   -0.019678
     10          1           0        3.185287    0.927512    0.069292
     11          8           0       -1.884083    1.241879   -0.040248
 ---------------------------------------------------------------------

 SCF Done:  E(UB3LYP) =  -666.085994958     A.U. after   20 cycles

 The electronic state is 2-A.
 Alpha  occ. eigenvalues --  -88.79829 -19.03249 -19.03108 -10.21815 -10.13382
 Alpha  occ. eigenvalues --  -10.13356  -7.85428  -5.81845  -5.81647  -5.81170
 Alpha  occ. eigenvalues --   -0.96404  -0.87728  -0.73152  -0.64336  -0.54888
 Alpha  occ. eigenvalues --   -0.44745  -0.41447  -0.38605  -0.36048  -0.34025
 Alpha  occ. eigenvalues --   -0.33413  -0.31336  -0.29505  -0.26270  -0.19723
 Alpha  occ. eigenvalues --   -0.18126  -0.17807  -0.17670   0.01998
 Alpha virt. eigenvalues --    0.10855   0.11531   0.15472   0.17511   0.18121
 Alpha virt. eigenvalues --    0.23647   0.26543   0.31115   0.36824   0.38786
 Alpha virt. eigenvalues --    0.40665   0.42033   0.42349   0.49764   0.56470

  Beta  occ. eigenvalues --  -88.79706 -19.03215 -19.03108 -10.21818 -10.13317
  Beta  occ. eigenvalues --  -10.12842  -7.85306  -5.81634  -5.81347  -5.81110
  Beta  occ. eigenvalues --   -0.96379  -0.87693  -0.72482  -0.63607  -0.54099
  Beta  occ. eigenvalues --   -0.44554  -0.41266  -0.38114  -0.35869  -0.33848
  Beta  occ. eigenvalues --   -0.32335  -0.30339  -0.29411  -0.24409  -0.19694
  Beta  occ. eigenvalues --   -0.17974  -0.17652  -0.17240
  Beta virt. eigenvalues --    0.10142   0.10976   0.13189   0.16455   0.17867
  Beta virt. eigenvalues --    0.18500   0.23936   0.27103   0.31342   0.37140
  Beta virt. eigenvalues --    0.39857   0.41084   0.42336   0.43068   0.50507

 Mulliken charges and spin densities:
               1          2
     1  C    0.473990   0.001737
     2  C   -0.215994   0.003648
     3  H    0.039970   0.017088
     4  H    0.038916   0.023593
     5  C   -0.176448   0.103461
     6  H    0.032558   0.026721
     7  H    0.026136   0.029591
     8  O   -0.689483  -0.000035
     9  S   -0.697274   0.550504
    10  H   -0.163835   0.238658
    11  O   -0.668538   0.005034
 Sum of Mulliken charges =  -2.00000   1.00000

 Dipole moment (field-independent basis, Debye):
    X=             -0.5803    Y=              0.7842    Z=              0.1557  Tot=              0.9879
 There are a total of      244430 grid points.
 ElSum from          density=       56.9999978009
 ElSum from atomic densities=       54.9999959627
 Hirshfeld populations at iteration   1 (CA, CB, DipXYZ):
               1          2          3          4          5
     1  C    2.955877   2.951993   0.075217  -0.019217  -0.001104
     2  C    3.075243   3.037998  -0.041384   0.057897   0.002714
     3  H    0.516692   0.497147  -0.027294  -0.064643   0.088518
     4  H    0.519148   0.495905  -0.032638  -0.049281  -0.094247
     5  C    3.143790   2.989258  -0.049319  -0.021450  -0.001369

 Normal termination of Gaussian 16 at Mon Nov 29 23:36:07 2021.
