 Gaussian 16, Revision A.03,
 Gaussian 16:  ES64L-G16RevA.03 25-Dec-2016

 ----------------------------------------------------------------------
 #t B3LYP/6-31G(d,p) # SCRF=(Solvent=water) # Gfinput IOP(6/7=3) Pop=hi
 rshfeld Density Test # Units(Ang,Deg)
 ----------------------------------------------------------------------
 -------------------
 Title Card Required
 -------------------
 Symbolic Z-matrix:
 Charge =  0 Multiplicity = 2

                         Standard orientation:
 ---------------------------------------------------------------------
 Center     Atomic      Atomic             Coordinates (Angstroms)
 Number     Number       Type             X           Y           Z
 ---------------------------------------------------------------------
      1          6           0       -1.745513   -0.010381   -0.005888
      2          6           0       -0.283352   -0.560500   -0.022028
      3          1           0       -0.174602   -1.272850    0.805092
      4          1           0       -0.153662   -1.144900   -0.942718
      5          6           0        0.774327    0.532160    0.064502
      6          1           0        0.659567    1.238850   -0.757808
      7          1           0        0.685687    1.083320    1.002172
      8          8           0       -2.648492   -0.886652    0.030162
      9         16           0        2.474097   -0.215089   -0.019678
     10          1           0        3.185287    0.927512    0.069292
     11          8           0       -1.884083    1.241879   -0.040248
 ---------------------------------------------------------------------

 SCF Done:  E(UB3LYP) =  -665.907120813     A.U. after   41 cycles

 The electronic state is 2-A.
 Alpha  occ. eigenvalues --  -88.88696 -19.27576 -19.16493 -10.35025 -10.23328
 Alpha  occ. eigenvalues --  -10.22635  -7.94926  -5.91435  -5.91069  -5.90389
 Alpha  occ. eigenvalues --   -1.15040  -1.02899  -0.81953  -0.73738  -0.63718
 Alpha  occ. eigenvalues --   -0.57457  -0.52937  -0.50446  -0.49664  -0.45643
 Alpha  occ. eigenvalues --   -0.43606  -0.40968  -0.37871  -0.37553  -0.33890
 Alpha  occ. eigenvalues --   -0.33603  -0.29537  -0.25005
 Alpha virt. eigenvalues --   -0.00690   0.01935   0.05828   0.11279   0.13683
 Alpha virt. eigenvalues --    0.14004   0.18454   0.18812   0.21347   0.26806
 Alpha virt. eigenvalues --    0.32762   0.34608   0.36804   0.37410   0.42042

  Beta  occ. eigenvalues --  -88.88678 -19.25431 -19.16155 -10.35110 -10.23288
  Beta  occ. eigenvalues --  -10.22517  -7.94909  -5.91400  -5.91048  -5.90368
  Beta  occ. eigenvalues --   -1.11183  -1.00934  -0.81645  -0.73234  -0.63053
  Beta  occ. eigenvalues --   -0.55803  -0.50426  -0.49961  -0.46754  -0.44924
  Beta  occ. eigenvalues --   -0.41858  -0.40049  -0.37647  -0.33695  -0.32857
  Beta  occ. eigenvalues --   -0.28337  -0.24899
  Beta virt. eigenvalues --   -0.21984  -0.00394   0.02037   0.05979   0.11369
  Beta virt. eigenvalues --    0.13719   0.14068   0.18543   0.19118   0.21982
  Beta virt. eigenvalues --    0.28050   0.33171   0.34772   0.36900   0.37451

 Mulliken charges and spin densities:
               1          2
     1  C    0.623018  -0.052481
     2  C   -0.291288   0.060847
     3  H    0.169559  -0.002400
     4  H    0.174672  -0.002493
     5  C   -0.317726   0.015125
     6  H    0.168174  -0.000207
     7  H    0.167027  -0.000486
     8  O   -0.220236   0.827099
     9  S   -0.084051   0.027401
    10  H    0.100852   0.001702
    11  O   -0.490002   0.125893
 Sum of Mulliken charges =  -0.00000   1.00000

 Dipole moment (field-independent basis, Debye):
    X=              1.4455    Y=             -0.6718    Z=              0.1794  Tot=              1.6041
 There are a total of      244430 grid points.
 ElSum from          density=       54.9999983375
 ElSum from atomic densities=       54.9999959627
 Hirshfeld populations at iteration   1 (CA, CB, DipXYZ):
               1          2          3          4          5
     1  C    2.910563   2.871532  -0.016072  -0.072153   0.003744
     2  C    3.043620   2.993585  -0.025759   0.021433   0.001079
     3  H    0.474056   0.473000   0.008243  -0.103785   0.117627
     4  H    0.472810   0.472186   0.009391  -0.086233  -0.131745
     5  C    3.025327   3.008175   0.005390  -0.016801  -0.000984

 Normal termination of Gaussian 16 at Mon Nov 29 23:36:43 2021.
