 Gaussian 16, Revision A.03,
 Gaussian 16:  ES64L-G16RevA.03 25-Dec-2016

 ----------------------------------------------------------------------
 #P B3LYP/6-31G(d,p) # Opt=tight freq=raman SCRF=(Solvent=water) # Gfin
 put IOP(6/7=3) Pop=full Density Test # Units(Ang,Deg)
 ----------------------------------------------------------------------

 -------------------
 Title Card Required
 -------------------
 Symbolic Z-matrix:
 Charge = -1 Multiplicity = 1

 SCF Done:  E(RB3LYP) =  -665.999249703     A.U. after   14 cycles
 SCF Done:  E(RB3LYP) =  -666.062098508     A.U. after   12 cycles
 SCF Done:  E(RB3LYP) =  -666.084759619     A.U. after   13 cycles
 SCF Done:  E(RB3LYP) =  -666.108155661     A.U. after   13 cycles
 SCF Done:  E(RB3LYP) =  -666.093461763     A.U. after   13 cycles
 SCF Done:  E(RB3LYP) =  -666.113639062     A.U. after   11 cycles
 SCF Done:  E(RB3LYP) =  -666.113829191     A.U. after   10 cycles
 SCF Done:  E(RB3LYP) =  -666.113873696     A.U. after   10 cycles
 SCF Done:  E(RB3LYP) =  -666.113922008     A.U. after   11 cycles
 SCF Done:  E(RB3LYP) =  -666.113918385     A.U. after   10 cycles
 SCF Done:  E(RB3LYP) =  -666.113943945     A.U. after    6 cycles
 SCF Done:  E(RB3LYP) =  -666.113945646     A.U. after    9 cycles
 SCF Done:  E(RB3LYP) =  -666.113944038     A.U. after    9 cycles
 SCF Done:  E(RB3LYP) =  -666.113943926     A.U. after    6 cycles
 SCF Done:  E(RB3LYP) =  -666.113945581     A.U. after    9 cycles
 SCF Done:  E(RB3LYP) =  -666.113944039     A.U. after    9 cycles
 SCF Done:  E(RB3LYP) =  -666.113944061     A.U. after    5 cycles
 SCF Done:  E(RB3LYP) =  -666.113945566     A.U. after    9 cycles
 SCF Done:  E(RB3LYP) =  -666.113944062     A.U. after    9 cycles
 Optimization completed.
    -- Stationary point found.
 Normal termination of Gaussian 16 at Mon Nov 29 19:56:58 2021.

 ----------------------------------------------------------------------
 #P Geom=AllCheck Guess=TCheck SCRF=Check Test GenChk RB3LYP/6-31G(d,p)
  Freq
 ----------------------------------------------------------------------

 Structure from the checkpoint file:  "/home/rheinheimer/Programs/gaussian/scrgauss/Gau-2765856.chk"
 -------------------
 Title Card Required
 -------------------
 Charge = -1 Multiplicity = 1

                         Standard orientation:
 ---------------------------------------------------------------------
 Center     Atomic      Atomic             Coordinates (Angstroms)
 Number     Number       Type             X           Y           Z
 ---------------------------------------------------------------------
      1          6           0       -1.745514   -0.010384   -0.005887
      2          6           0       -0.283351   -0.560499   -0.022030
      3          1           0       -0.174604   -1.272850    0.805092
      4          1           0       -0.153663   -1.144902   -0.942716
      5          6           0        0.774331    0.532159    0.064503
      6          1           0        0.659574    1.238848   -0.757806
      7          1           0        0.685689    1.083317    1.002170
      8          8           0       -2.648492   -0.886649    0.030157
      9         16           0        2.474095   -0.215089   -0.019675
     10          1           0        3.185294    0.927514    0.069291
     11          8           0       -1.884084    1.241878   -0.040251
 ---------------------------------------------------------------------

 SCF Done:  E(RB3LYP) =  -666.113944062     A.U. after    1 cycles

 The electronic state is 1-A.
 Alpha  occ. eigenvalues --  -88.86741 -19.04883 -19.04484 -10.23586 -10.20258
 Alpha  occ. eigenvalues --  -10.16400  -7.92993  -5.89474  -5.89125  -5.88490
 Alpha  occ. eigenvalues --   -0.97876  -0.89178  -0.78216  -0.69308  -0.59200
 Alpha  occ. eigenvalues --   -0.47467  -0.44882  -0.41772  -0.38539  -0.37180
 Alpha  occ. eigenvalues --   -0.36807  -0.34372  -0.31687  -0.31622  -0.23516
 Alpha  occ. eigenvalues --   -0.20908  -0.19810  -0.19149
 Alpha virt. eigenvalues --    0.03647   0.07821   0.09382   0.13560   0.15839
 Alpha virt. eigenvalues --    0.16001   0.21805   0.23046   0.28463   0.34933
 Alpha virt. eigenvalues --    0.35264   0.37249   0.38473   0.39606   0.47151

 Mulliken charges:
               1
     1  C    0.500961
     2  C   -0.269203
     3  H    0.097336
     4  H    0.101201
     5  C   -0.291454
     6  H    0.134342
     7  H    0.132691
     8  O   -0.672052
     9  S   -0.155275
    10  H    0.079279
    11  O   -0.657825
 Sum of Mulliken charges =  -1.00000

 Dipole moment (field-independent basis, Debye):
    X=              9.3187    Y=              0.6801    Z=              0.1557  Tot=              9.3448
 Quadrupole moment (field-independent basis, Debye-Ang):
   XX=            -76.3431   YY=            -51.1166   ZZ=            -44.6928
   XY=              4.4824   XZ=              0.4388   YZ=              0.4762

  Exact polarizability:  87.939   2.693  68.792  -0.410   0.103  47.929
 Approx polarizability:  93.728   5.317  88.371  -0.577  -0.145  55.369

                      1                      2                      3
                      A                      A                      A
 Frequencies --     31.9061                89.7447               156.5908
 Red. masses --      2.5110                 3.7119                 6.1399
 Frc consts  --      0.0015                 0.0176                 0.0887
 IR Inten    --      4.3560                13.3987                11.4175
 Raman Activ --      0.4906                 0.2011                 1.7577

                      4                      5                      6
                      A                      A                      A
 Frequencies --    202.5040               255.6863               454.4014
 Red. masses --      1.0680                11.7086                 5.6707
 Frc consts  --      0.0258                 0.4510                 0.6899
 IR Inten    --     31.5010                 3.5613                 7.1293
 Raman Activ --     13.1825                 3.2631                13.9765

                      7                      8                      9
                      A                      A                      A
 Frequencies --    582.6039               646.1945               734.0629
 Red. masses --      2.0577                 7.5282                 3.5071
 Frc consts  --      0.4115                 1.8521                 1.1134
 IR Inten    --      3.8571                63.3890                 8.8758
 Raman Activ --      3.8489                10.3644                84.6130

                     10                     11                     12
                      A                      A                      A
 Frequencies --    789.4356               835.6839               911.3757
 Red. masses --      1.3943                 1.7213                 2.6732
 Frc consts  --      0.5119                 0.7083                 1.3082
 IR Inten    --     13.9687                31.9726                51.1469
 Raman Activ --      2.4585                36.1369                25.0572

                     13                     14                     15
                      A                      A                      A
 Frequencies --    992.2586              1087.2284              1125.2685
 Red. masses --      1.6043                 2.9116                 1.2241
 Frc consts  --      0.9307                 2.0278                 0.9132
 IR Inten    --      0.7876                 4.2489                 3.2707
 Raman Activ --      8.2131                24.3518                 0.7370

                     16                     17                     18
                      A                      A                      A
 Frequencies --   1220.3514              1290.9598              1317.0139
 Red. masses --      1.2357                 1.1586                 1.4676
 Frc consts  --      1.0843                 1.1376                 1.4999
 IR Inten    --     35.8307                 0.7837                48.1510
 Raman Activ --      4.9468                24.3397                19.3256

                     19                     20                     21
                      A                      A                      A
 Frequencies --   1384.8403              1472.5017              1487.5954
 Red. masses --     11.8221                 1.1032                 1.0988
 Frc consts  --     13.3580                 1.4093                 1.4326
 IR Inten    --    426.7462                 3.2012                 6.1861
 Raman Activ --      9.1098                35.3884                 9.8566

                     22                     23                     24
                      A                      A                      A
 Frequencies --   1699.5584              2672.7816              3032.2567
 Red. masses --     11.5264                 1.0386                 1.0613
 Frc consts  --     19.6163                 4.3712                 5.7492
 IR Inten    --    679.1995                30.5043                40.6780
 Raman Activ --      6.8721               458.6234               210.9353

                     25                     26                     27
                      A                      A                      A
 Frequencies --   3070.9359              3096.2130              3155.8204
 Red. masses --      1.1010                 1.0579                 1.1092
 Frc consts  --      6.1177                 5.9752                 6.5088
 IR Inten    --     41.3400                35.2496                26.8236
 Raman Activ --    164.8476               187.1762               106.8525

 - Thermochemistry -
 -------------------
 Temperature   298.150 Kelvin.  Pressure   1.00000 Atm.
 Atom     1 has atomic number  6 and mass  12.00000

 Molecular mass:   105.00103 amu.
 Principal axes and moments of inertia in atomic units:
                           1         2         3
     Eigenvalues --   198.634551513.205921688.61753
           X            0.99991   0.01328   0.00106
           Y           -0.01329   0.99990   0.00549
           Z           -0.00099  -0.00550   0.99998
 This molecule is an asymmetric top.
 Rotational symmetry number  1.
 Rotational temperatures (Kelvin)      0.43605     0.05724     0.05129
 Rotational constants (GHZ):           9.08574     1.19266     1.06877
 Zero-point vibrational energy     202143.6 (Joules/Mol)
                                   48.31348 (Kcal/Mol)
 Warning -- explicit consideration of   7 degrees of freedom as
           vibrations may cause significant error
 Vibrational temperatures:     45.91   129.12   225.30   291.36   367.88
          (Kelvin)            653.78   838.24   929.73  1056.15  1135.82
                             1202.36  1311.27  1427.64  1564.28  1619.01
                             1755.81  1857.40  1894.89  1992.48  2118.60
                             2140.32  2445.29  3845.54  4362.74  4418.39
                             4454.76  4540.52

 Zero-point correction=                           0.076992 (Hartree/Particle)
 Thermal correction to Energy=                    0.084133
 Thermal correction to Enthalpy=                  0.085077
 Thermal correction to Gibbs Free Energy=         0.044146
 Sum of electronic and zero-point Energies=           -666.036952
 Sum of electronic and thermal Energies=              -666.029811
 Sum of electronic and thermal Enthalpies=            -666.028867
 Sum of electronic and thermal Free Energies=         -666.069798

                     E (Thermal)             CV                S
                      KCal/Mol        Cal/Mol-Kelvin    Cal/Mol-Kelvin
 Total                   52.794             22.985             86.146
 Electronic               0.000              0.000              0.000
 Translational            0.889              2.981             39.863
 Rotational               0.889              2.981             27.720
 Vibrational             51.017             17.023             18.562
 Vibration     1          0.594              1.983              5.707
 Vibration     2          0.602              1.956              3.666
 Vibration     3          0.620              1.895              2.591
 Vibration     4          0.639              1.836              2.110
 Vibration     5          0.666              1.753              1.691
 Vibration     6          0.813              1.351              0.783
 Vibration     7          0.939              1.069              0.481

 Optimization completed.
    -- Stationary point found.
 Normal termination of Gaussian 16 at Mon Nov 29 19:58:13 2021.
