 Gaussian 16, Revision A.03,
 Gaussian 16:  ES64L-G16RevA.03 25-Dec-2016

 ----------------------------------------------------------------------
 #t B3LYP/6-31G(d,p) # SCRF=(Solvent=water) # Gfinput IOP(6/7=3) Pop=hi
 rshfeld Density Test # Units(Ang,Deg)
 ----------------------------------------------------------------------
 -----------------------
 w-appa_opt_freq_g09.log
 -----------------------
 Symbolic Z-matrix:
 Charge =  1 Multiplicity = 2

                         Standard orientation:
 ---------------------------------------------------------------------
 Center     Atomic      Atomic             Coordinates (Angstroms)
 Number     Number       Type             X           Y           Z
 ---------------------------------------------------------------------
      1          6           0        1.064720    1.591710    0.328260
      2          6           0        2.415390    1.749599    0.010800
      3          6           0        3.232519    0.643949   -0.213660
      4          6           0        2.701599   -0.655881   -0.121800
      5          6           0        1.340679   -0.805360    0.199980
      6          6           0        0.519269    0.303750    0.424620
      7          1           0        0.438350    2.461090    0.507650
      8          1           0        2.841460    2.747009   -0.056120
      9          1           0        4.283390    0.778149   -0.456540
     10          1           0        0.923119   -1.807140    0.279090
     11          6           0       -0.950011    0.109600    0.737900
     12          1           0       -1.098871   -0.826050    1.284540
     13          1           0       -1.299690    0.921240    1.385460
     14          6           0       -1.815931    0.082200   -0.544480
     15          1           0       -1.691670    1.004410   -1.115530
     16          1           0       -1.493561   -0.752400   -1.178370
     17          7           0        3.493119   -1.771571   -0.401670
     18          1           0        4.484749   -1.634121   -0.252630
     19          1           0        3.177829   -2.632421    0.027330
     20          6           0       -3.292971   -0.085739   -0.270320
     21          8           0       -4.171851    0.661731   -0.653050
     22          8           0       -3.552271   -1.190989    0.463290
     23          1           0       -4.515551   -1.227669    0.597070
 ---------------------------------------------------------------------

 SCF Done:  E(UB3LYP) =  -554.630789847     A.U. after   19 cycles

 The electronic state is 2-A.
 Alpha  occ. eigenvalues --  -19.20277 -19.14884 -14.44324 -10.33178 -10.30902
 Alpha  occ. eigenvalues --  -10.25563 -10.25181 -10.24951 -10.24650 -10.23971
 Alpha  occ. eigenvalues --  -10.21757 -10.21436  -1.11177  -1.02114  -1.00027
 Alpha  occ. eigenvalues --   -0.90550  -0.82984  -0.79486  -0.78080  -0.70031
 Alpha  occ. eigenvalues --   -0.66226  -0.64007  -0.61002  -0.57499  -0.56266
 Alpha  occ. eigenvalues --   -0.53486  -0.50691  -0.49547  -0.49066  -0.47367
 Alpha  occ. eigenvalues --   -0.46803  -0.45645  -0.45124  -0.43481  -0.41353
 Alpha  occ. eigenvalues --   -0.40258  -0.39796  -0.38168  -0.37514  -0.36566
 Alpha  occ. eigenvalues --   -0.32689  -0.29991  -0.28941  -0.28160
 Alpha virt. eigenvalues --   -0.05487  -0.05327  -0.00102   0.05742   0.07369
 Alpha virt. eigenvalues --    0.08298   0.09786   0.10054   0.11809   0.11922
 Alpha virt. eigenvalues --    0.14172   0.15038   0.16085   0.16660   0.18097

  Beta  occ. eigenvalues --  -19.20276 -19.14883 -14.43509 -10.33179 -10.30747
  Beta  occ. eigenvalues --  -10.25081 -10.25029 -10.24888 -10.24437 -10.24101
  Beta  occ. eigenvalues --  -10.21751 -10.21439  -1.11176  -1.02112  -0.98635
  Beta  occ. eigenvalues --   -0.89796  -0.82756  -0.78583  -0.77542  -0.69738
  Beta  occ. eigenvalues --   -0.65743  -0.63742  -0.60983  -0.57045  -0.55877
  Beta  occ. eigenvalues --   -0.53016  -0.50544  -0.49378  -0.48977  -0.47137
  Beta  occ. eigenvalues --   -0.46697  -0.45014  -0.43576  -0.42902  -0.41001
  Beta  occ. eigenvalues --   -0.40038  -0.39249  -0.38025  -0.36609  -0.34495
  Beta  occ. eigenvalues --   -0.32670  -0.29383  -0.27980
  Beta virt. eigenvalues --   -0.20347  -0.04287  -0.02845  -0.00062   0.06151
  Beta virt. eigenvalues --    0.07571   0.08355   0.10022   0.11225   0.11980
  Beta virt. eigenvalues --    0.12035   0.14329   0.15254   0.16326   0.16858

 Mulliken charges and spin densities:
               1          2
     1  C   -0.042651   0.384387
     2  C   -0.087425  -0.115140
     3  C   -0.051258   0.216078
     4  C    0.286974   0.103452
     5  C   -0.082300   0.160069
     6  C    0.098009  -0.090310
     7  H    0.167693  -0.015304
     8  H    0.160992   0.003143
     9  H    0.169843  -0.009315
    10  H    0.162415  -0.007019
    11  C   -0.261912   0.004786
    12  H    0.152086  -0.000588
    13  H    0.145927  -0.000738
    14  C   -0.238794   0.000047
    15  H    0.146378  -0.000109
    16  H    0.160092   0.000000
    17  N   -0.521335   0.378407
    18  H    0.346521  -0.006047
    19  H    0.346380  -0.006160
    20  C    0.571611  -0.000218
    21  O   -0.496597   0.000505
    22  O   -0.479843   0.000063
    23  H    0.347194   0.000011
 Sum of Mulliken charges =   1.00000   1.00000

 Dipole moment (field-independent basis, Debye):
    X=             12.9473    Y=             -3.3959    Z=              1.6412  Tot=             13.4855
 There are a total of      519790 grid points.
 ElSum from          density=       86.9999956358
 ElSum from atomic densities=       88.0000025010
 Hirshfeld populations at iteration   1 (CA, CB, DipXYZ):
               1          2          3          4          5
     1  C    3.097693   2.851231  -0.044028   0.066678   0.013406
     2  C    2.988266   3.003640   0.010858   0.078283  -0.000709
     3  C    3.069204   2.914307   0.068609  -0.019546  -0.013648
     4  C    3.003530   2.874460   0.052460  -0.061563  -0.003806
     5  C    3.057909   2.940162   0.005880  -0.063290   0.000374

 Normal termination of Gaussian 16 at Tue Nov 30 02:32:21 2021.
