 Gaussian 16, Revision A.03,
 Gaussian 16:  ES64L-G16RevA.03 25-Dec-2016

 ----------------------------------------------------------------------
 #t B3LYP/6-31G(d,p) # SCRF=(Solvent=water) # Gfinput IOP(6/7=3) Pop=hi
 rshfeld Density Test # Units(Ang,Deg)
 ----------------------------------------------------------------------
 -----------------------
 w-appa_opt_freq_g09.log
 -----------------------
 Symbolic Z-matrix:
 Charge = -1 Multiplicity = 2

                         Standard orientation:
 ---------------------------------------------------------------------
 Center     Atomic      Atomic             Coordinates (Angstroms)
 Number     Number       Type             X           Y           Z
 ---------------------------------------------------------------------
      1          6           0        1.064720    1.591710    0.328260
      2          6           0        2.415390    1.749599    0.010800
      3          6           0        3.232519    0.643949   -0.213660
      4          6           0        2.701599   -0.655881   -0.121800
      5          6           0        1.340679   -0.805360    0.199980
      6          6           0        0.519269    0.303750    0.424620
      7          1           0        0.438350    2.461090    0.507650
      8          1           0        2.841460    2.747009   -0.056120
      9          1           0        4.283390    0.778149   -0.456540
     10          1           0        0.923119   -1.807140    0.279090
     11          6           0       -0.950011    0.109600    0.737900
     12          1           0       -1.098871   -0.826050    1.284540
     13          1           0       -1.299690    0.921240    1.385460
     14          6           0       -1.815931    0.082200   -0.544480
     15          1           0       -1.691670    1.004410   -1.115530
     16          1           0       -1.493561   -0.752400   -1.178370
     17          7           0        3.493119   -1.771571   -0.401670
     18          1           0        4.484749   -1.634121   -0.252630
     19          1           0        3.177829   -2.632421    0.027330
     20          6           0       -3.292971   -0.085739   -0.270320
     21          8           0       -4.171851    0.661731   -0.653050
     22          8           0       -3.552271   -1.190989    0.463290
     23          1           0       -4.515551   -1.227669    0.597070
 ---------------------------------------------------------------------

 SCF Done:  E(UB3LYP) =  -554.842263019     A.U. after   21 cycles

 The electronic state is 2-A.
 Alpha  occ. eigenvalues --  -19.16267 -19.09436 -14.31164 -10.26456 -10.18447
 Alpha  occ. eigenvalues --  -10.16813 -10.16040 -10.13507 -10.12931 -10.12841
 Alpha  occ. eigenvalues --  -10.12110 -10.12011  -1.06929  -0.97567  -0.88372
 Alpha  occ. eigenvalues --   -0.79659  -0.75604  -0.69647  -0.67993  -0.62649
 Alpha  occ. eigenvalues --   -0.57204  -0.55991  -0.54249  -0.47608  -0.46768
 Alpha  occ. eigenvalues --   -0.45776  -0.44576  -0.43520  -0.42773  -0.40932
 Alpha  occ. eigenvalues --   -0.37907  -0.37317  -0.36728  -0.35643  -0.34552
 Alpha  occ. eigenvalues --   -0.33679  -0.32505  -0.30574  -0.29177  -0.28990
 Alpha  occ. eigenvalues --   -0.27221  -0.24070  -0.20673  -0.17200  -0.01074
 Alpha virt. eigenvalues --    0.02896   0.05407   0.09971   0.10754   0.12755
 Alpha virt. eigenvalues --    0.14538   0.15621   0.15976   0.16406   0.19193
 Alpha virt. eigenvalues --    0.19892   0.20789   0.21618   0.22465   0.25555

  Beta  occ. eigenvalues --  -19.16213 -19.09210 -14.31174 -10.26131 -10.18535
  Beta  occ. eigenvalues --  -10.16798 -10.16037 -10.13610 -10.12666 -10.12481
  Beta  occ. eigenvalues --  -10.11810 -10.11738  -1.06646  -0.97206  -0.88349
  Beta  occ. eigenvalues --   -0.79198  -0.75294  -0.68946  -0.67661  -0.62233
  Beta  occ. eigenvalues --   -0.56990  -0.55686  -0.53921  -0.47460  -0.46543
  Beta  occ. eigenvalues --   -0.45403  -0.44352  -0.43245  -0.42225  -0.40314
  Beta  occ. eigenvalues --   -0.37721  -0.37124  -0.36467  -0.35102  -0.34286
  Beta  occ. eigenvalues --   -0.33303  -0.32346  -0.30355  -0.28818  -0.28158
  Beta  occ. eigenvalues --   -0.26547  -0.23778  -0.18363  -0.16378
  Beta virt. eigenvalues --    0.04939   0.05606   0.06399   0.10106   0.10844
  Beta virt. eigenvalues --    0.12827   0.14701   0.15718   0.16096   0.16620
  Beta virt. eigenvalues --    0.19698   0.20358   0.21536   0.21882   0.22716

 Mulliken charges and spin densities:
               1          2
     1  C   -0.165754  -0.087042
     2  C   -0.171589   0.202294
     3  C   -0.212246   0.228478
     4  C    0.255507  -0.066285
     5  C   -0.253321   0.218585
     6  C    0.063959   0.245825
     7  H    0.027331   0.003024
     8  H    0.023309  -0.011777
     9  H    0.016526  -0.013292
    10  H    0.012293  -0.012462
    11  C   -0.242156   0.000139
    12  H    0.077278   0.007557
    13  H    0.073544   0.000954
    14  C   -0.211063   0.009665
    15  H    0.090810  -0.000381
    16  H    0.094842   0.012415
    17  N   -0.691811  -0.003197
    18  H    0.254840   0.001705
    19  H    0.255382   0.001046
    20  C    0.473974   0.184366
    21  O   -0.576020   0.069534
    22  O   -0.512052   0.008797
    23  H    0.316418   0.000051
 Sum of Mulliken charges =  -1.00000   1.00000

 Dipole moment (field-independent basis, Debye):
    X=              0.6708    Y=             -3.8514    Z=              1.8958  Tot=              4.3448
 There are a total of      519790 grid points.
 ElSum from          density=       88.9999951856
 ElSum from atomic densities=       88.0000025010
 Hirshfeld populations at iteration   1 (CA, CB, DipXYZ):
               1          2          3          4          5
     1  C    3.057504   3.057924  -0.041869   0.030480   0.007708
     2  C    3.142016   2.998626   0.028496   0.023536  -0.004695
     3  C    3.164969   3.005632   0.015681   0.005003  -0.003738
     4  C    3.005679   2.994048   0.063242  -0.081135  -0.003153
     5  C    3.158532   3.006110  -0.016495  -0.003585   0.002587

 Normal termination of Gaussian 16 at Tue Nov 30 02:31:07 2021.
