 Gaussian 16, Revision A.03,
 Gaussian 16:  ES64L-G16RevA.03 25-Dec-2016

 ----------------------------------------------------------------------
 #p B3LYP/6-31G(d,p) # SCRF=(Solvent=Water) # Gfinput IOP(6/7=3) Pop=Ch
 elp Density Test # Units(Ang,Deg)
 ----------------------------------------------------------------------

 -------------------
 Title Card Required
 -------------------
 Symbolic Z-matrix:
 Charge =  0 Multiplicity = 1

                         Standard orientation:
 ---------------------------------------------------------------------
 Center     Atomic      Atomic             Coordinates (Angstroms)
 Number     Number       Type             X           Y           Z
 ---------------------------------------------------------------------
      1          6           0        1.064720    1.591710    0.328260
      2          6           0        2.415390    1.749599    0.010800
      3          6           0        3.232519    0.643949   -0.213660
      4          6           0        2.701599   -0.655881   -0.121800
      5          6           0        1.340679   -0.805360    0.199980
      6          6           0        0.519269    0.303750    0.424620
      7          1           0        0.438350    2.461090    0.507650
      8          1           0        2.841460    2.747009   -0.056120
      9          1           0        4.283390    0.778149   -0.456540
     10          1           0        0.923119   -1.807140    0.279090
     11          6           0       -0.950011    0.109600    0.737900
     12          1           0       -1.098871   -0.826050    1.284540
     13          1           0       -1.299690    0.921240    1.385460
     14          6           0       -1.815931    0.082200   -0.544480
     15          1           0       -1.691670    1.004410   -1.115530
     16          1           0       -1.493561   -0.752400   -1.178370
     17          7           0        3.493119   -1.771571   -0.401670
     18          1           0        4.484749   -1.634121   -0.252630
     19          1           0        3.177829   -2.632421    0.027330
     20          6           0       -3.292971   -0.085739   -0.270320
     21          8           0       -4.171851    0.661731   -0.653050
     22          8           0       -3.552271   -1.190989    0.463290
     23          1           0       -4.515551   -1.227669    0.597070
 ---------------------------------------------------------------------

 SCF Done:  E(RB3LYP) =  -554.834289361     A.U. after   12 cycles

 The electronic state is 1-A.
 Alpha  occ. eigenvalues --  -19.19767 -19.14276 -14.33613 -10.32438 -10.22735
 Alpha  occ. eigenvalues --  -10.20114 -10.19522 -10.19497 -10.18720 -10.18042
 Alpha  occ. eigenvalues --  -10.17980 -10.17643  -1.10639  -1.01564  -0.91376
 Alpha  occ. eigenvalues --   -0.84114  -0.79458  -0.74097  -0.72231  -0.66542
 Alpha  occ. eigenvalues --   -0.60517  -0.60079  -0.58008  -0.51090  -0.50205
 Alpha  occ. eigenvalues --   -0.49223  -0.48178  -0.47029  -0.46003  -0.44329
 Alpha  occ. eigenvalues --   -0.42049  -0.41274  -0.40636  -0.39294  -0.38290
 Alpha  occ. eigenvalues --   -0.36949  -0.35802  -0.34631  -0.33299  -0.32188
 Alpha  occ. eigenvalues --   -0.30418  -0.27812  -0.24252  -0.20341
 Alpha virt. eigenvalues --   -0.00518   0.01055   0.01528   0.08428   0.09300
 Alpha virt. eigenvalues --    0.10775   0.12616   0.13681   0.14209   0.14568
 Alpha virt. eigenvalues --    0.16597   0.17669   0.18494   0.19469   0.20477

 Mulliken charges:
               1
     1  C   -0.148696
     2  C   -0.108994
     3  C   -0.135020
     4  C    0.262474
     5  C   -0.165791
     6  C    0.099754
     7  H    0.085453
     8  H    0.096001
     9  H    0.091521
    10  H    0.087955
    11  C   -0.254168
    12  H    0.124754
    13  H    0.118757
    14  C   -0.231825
    15  H    0.132489
    16  H    0.146382
    17  N   -0.676824
    18  H    0.277676
    19  H    0.277376
    20  C    0.563823
    21  O   -0.504425
    22  O   -0.481683
    23  H    0.343009
 Sum of Mulliken charges =  -0.00000

 Dipole moment (field-independent basis, Debye):
    X=              2.5006    Y=             -2.7686    Z=              1.8698  Tot=              4.1731
 Quadrupole moment (field-independent basis, Debye-Ang):
   XX=            -62.3702   YY=            -63.4669   ZZ=            -73.7289
   XY=              3.6415   XZ=             -3.7935   YZ=             -0.9961

 ESP charges:
               1
     1  C   -0.018415
     2  C   -0.288437
     3  C   -0.121084
     4  C    0.296116
     5  C   -0.262874
     6  C   -0.037650
     7  H    0.050648
     8  H    0.150921
     9  H    0.110858
    10  H    0.151586
    11  C    0.335176
    12  H   -0.075847
    13  H   -0.095003
    14  C    0.036981
    15  H   -0.039556
    16  H   -0.002849
    17  N   -0.775136
    18  H    0.350933
    19  H    0.315067
    20  C    0.612329
    21  O   -0.548551
    22  O   -0.562072
    23  H    0.416862
 Sum of ESP charges =  -0.00000

 Normal termination of Gaussian 16 at Fri Jan  7 13:28:03 2022.
