 Gaussian 16, Revision A.03,
 Gaussian 16:  ES64L-G16RevA.03 25-Dec-2016

 ----------------------------------------------------------------------
 #t B3LYP/6-31G(d,p) # SCRF=(Solvent=Ethanol) # Gfinput IOP(6/7=3) Pop=
 hirshfeld Density Test # Units(Ang,Deg)
 ----------------------------------------------------------------------
 ------------------------
 e-aptms_opt_freq_g09.log
 ------------------------
 Symbolic Z-matrix:
 Charge =  1 Multiplicity = 2

                         Standard orientation:
 ---------------------------------------------------------------------
 Center     Atomic      Atomic             Coordinates (Angstroms)
 Number     Number       Type             X           Y           Z
 ---------------------------------------------------------------------
      1         14           0       -0.690601    0.046010   -0.137720
      2          6           0        1.018520    0.699269   -0.496880
      3          1           0        1.127580    0.761169   -1.588020
      4          1           0        1.073520    1.733439   -0.129890
      5          6           0        2.174079   -0.124722    0.101720
      6          1           0        2.123319   -1.155482   -0.274290
      7          1           0        2.070939   -0.187132    1.191060
      8          6           0        3.550840    0.457257   -0.228350
      9          1           0        3.616970    1.475547    0.175810
     10          1           0        3.645480    0.550367   -1.324620
     11          7           0        4.619399   -0.343453    0.389120
     12          1           0        4.646629   -1.257003   -0.062200
     13          1           0        5.519649    0.083076    0.177510
     14          8           0       -0.806111   -1.479620   -0.764690
     15          8           0       -1.901900    0.912790   -0.875280
     16          8           0       -0.875211    0.088140    1.511000
     17          6           0       -2.208999    2.268421   -0.552830
     18          1           0       -3.136839    2.539371   -1.063490
     19          1           0       -2.350589    2.406371    0.525240
     20          1           0       -1.416029    2.945900   -0.891580
     21          6           0       -2.020601   -0.395720    2.212320
     22          1           0       -1.990421   -0.000790    3.231330
     23          1           0       -2.955131   -0.069849    1.740880
     24          1           0       -2.014901   -1.490630    2.262910
     25          6           0       -2.012112   -2.176080   -1.076310
     26          1           0       -1.760382   -3.016010   -1.729490
     27          1           0       -2.485152   -2.571689   -0.169980
     28          1           0       -2.726611   -1.527649   -1.593190
 ---------------------------------------------------------------------

 SCF Done:  E(UB3LYP) =  -808.682384482     A.U. after   23 cycles

 The electronic state is 2-A.
 Alpha  occ. eigenvalues --  -66.19518 -19.16107 -19.15587 -19.15546 -14.50412
 Alpha  occ. eigenvalues --  -10.28822 -10.24028 -10.23865 -10.23712 -10.22897
 Alpha  occ. eigenvalues --  -10.19874  -5.33193  -3.69210  -3.69203  -3.68989
 Alpha  occ. eigenvalues --   -1.03355  -1.02153  -1.00678  -1.00546  -0.82301
 Alpha  occ. eigenvalues --   -0.72878  -0.69884  -0.68727  -0.68409  -0.64249
 Alpha  occ. eigenvalues --   -0.59624  -0.56779  -0.53999  -0.51257  -0.49403
 Alpha  occ. eigenvalues --   -0.48970  -0.47065  -0.46243  -0.45747  -0.45284
 Alpha  occ. eigenvalues --   -0.44181  -0.44054  -0.43438  -0.42563  -0.40718
 Alpha  occ. eigenvalues --   -0.39683  -0.36901  -0.35576  -0.34584  -0.32371
 Alpha  occ. eigenvalues --   -0.31537  -0.30346  -0.29792  -0.28482
 Alpha virt. eigenvalues --    0.03108   0.04763   0.06431   0.07574   0.08016
 Alpha virt. eigenvalues --    0.08489   0.10713   0.11118   0.11363   0.12750
 Alpha virt. eigenvalues --    0.13169   0.14694   0.14900   0.15244   0.16013

  Beta  occ. eigenvalues --  -66.19516 -19.16029 -19.15570 -19.15526 -14.48786
  Beta  occ. eigenvalues --  -10.28749 -10.24027 -10.23866 -10.23712 -10.22837
  Beta  occ. eigenvalues --  -10.19842  -5.33191  -3.69210  -3.69203  -3.68980
  Beta  occ. eigenvalues --   -1.03260  -1.00564  -1.00498  -0.99035  -0.81601
  Beta  occ. eigenvalues --   -0.72295  -0.69696  -0.68681  -0.68392  -0.63688
  Beta  occ. eigenvalues --   -0.58471  -0.54871  -0.53463  -0.50299  -0.49223
  Beta  occ. eigenvalues --   -0.48790  -0.46681  -0.45690  -0.45384  -0.44500
  Beta  occ. eigenvalues --   -0.44100  -0.43405  -0.43306  -0.42171  -0.39502
  Beta  occ. eigenvalues --   -0.36874  -0.35393  -0.34509  -0.32313  -0.31468
  Beta  occ. eigenvalues --   -0.30213  -0.29388  -0.28390
  Beta virt. eigenvalues --   -0.26119   0.03766   0.04855   0.06524   0.07695
  Beta virt. eigenvalues --    0.08270   0.08871   0.11064   0.11402   0.11642
  Beta virt. eigenvalues --    0.13111   0.13597   0.14817   0.15007   0.15340

 Mulliken charges and spin densities:
               1          2
     1  Si   1.077267   0.002469
     2  C   -0.402705   0.023018
     3  H    0.148476  -0.000539
     4  H    0.148928   0.000658
     5  C   -0.216706   0.027986
     6  H    0.153506  -0.001686
     7  H    0.167318   0.010554
     8  C   -0.136359   0.011265
     9  H    0.205465   0.010609
    10  H    0.250571   0.109815
    11  N   -0.298794   0.764774
    12  H    0.372271  -0.006872
    13  H    0.378251  -0.003294
    14  O   -0.570686   0.007416
    15  O   -0.566782   0.030332
    16  O   -0.573180   0.005920
    17  C   -0.084498  -0.000240
    18  H    0.127162   0.000680
    19  H    0.123171   0.000867
    20  H    0.124506   0.003818
    21  C   -0.082359  -0.000109
    22  H    0.124291   0.000724
    23  H    0.119441   0.000206
    24  H    0.123564   0.000017
    25  C   -0.077284   0.000095
    26  H    0.121298   0.000031
    27  H    0.119514   0.001188
    28  H    0.124351   0.000299
 Sum of Mulliken charges =   1.00000   1.00000

 Dipole moment (field-independent basis, Debye):
    X=             16.0346    Y=              0.6104    Z=             -0.3498  Tot=             16.0500
 There are a total of      634042 grid points.
 ElSum from          density=       96.9999894308
 ElSum from atomic densities=       97.9999493153
 Hirshfeld populations at iteration   1 (CA, CB, DipXYZ):
               1          2          3          4          5
     1  Si   6.750378   6.744024  -0.023716   0.010565  -0.001976
     2  C    3.069482   3.051225   0.079742   0.018761  -0.010572
     3  H    0.475439   0.473736   0.021889   0.014199  -0.159608
     4  H    0.475686   0.473733   0.014567   0.151210   0.049201
     5  C    3.029478   2.996715   0.015285   0.022497  -0.012828

 Normal termination of Gaussian 16 at Mon Feb 21 20:04:18 2022.
