 Gaussian 16, Revision A.03,
 Gaussian 16:  ES64L-G16RevA.03 25-Dec-2016

 ----------------------------------------------------------------------
 #t B3LYP/6-31G(d,p) # SCRF=(Solvent=Ethanol) # Gfinput IOP(6/7=3) Pop=
 hirshfeld Density Test # Units(Ang,Deg)
 ----------------------------------------------------------------------
 ------------------------
 e-aptms_opt_freq_g09.log
 ------------------------
 Symbolic Z-matrix:
 Charge = -1 Multiplicity = 2

                         Standard orientation:
 ---------------------------------------------------------------------
 Center     Atomic      Atomic             Coordinates (Angstroms)
 Number     Number       Type             X           Y           Z
 ---------------------------------------------------------------------
      1         14           0       -0.690601    0.046010   -0.137720
      2          6           0        1.018520    0.699269   -0.496880
      3          1           0        1.127580    0.761169   -1.588020
      4          1           0        1.073520    1.733439   -0.129890
      5          6           0        2.174079   -0.124722    0.101720
      6          1           0        2.123319   -1.155482   -0.274290
      7          1           0        2.070939   -0.187132    1.191060
      8          6           0        3.550840    0.457257   -0.228350
      9          1           0        3.616970    1.475547    0.175810
     10          1           0        3.645480    0.550367   -1.324620
     11          7           0        4.619399   -0.343453    0.389120
     12          1           0        4.646629   -1.257003   -0.062200
     13          1           0        5.519649    0.083076    0.177510
     14          8           0       -0.806111   -1.479620   -0.764690
     15          8           0       -1.901900    0.912790   -0.875280
     16          8           0       -0.875211    0.088140    1.511000
     17          6           0       -2.208999    2.268421   -0.552830
     18          1           0       -3.136839    2.539371   -1.063490
     19          1           0       -2.350589    2.406371    0.525240
     20          1           0       -1.416029    2.945900   -0.891580
     21          6           0       -2.020601   -0.395720    2.212320
     22          1           0       -1.990421   -0.000790    3.231330
     23          1           0       -2.955131   -0.069849    1.740880
     24          1           0       -2.014901   -1.490630    2.262910
     25          6           0       -2.012112   -2.176080   -1.076310
     26          1           0       -1.760382   -3.016010   -1.729490
     27          1           0       -2.485152   -2.571689   -0.169980
     28          1           0       -2.726611   -1.527649   -1.593190
 ---------------------------------------------------------------------

 SCF Done:  E(UB3LYP) =  -808.880790713     A.U. after   21 cycles

 The electronic state is 2-A.
 Alpha  occ. eigenvalues --  -66.13212 -19.10286 -19.10212 -19.10010 -14.30138
 Alpha  occ. eigenvalues --  -10.19996 -10.19604 -10.19098 -10.18989 -10.16385
 Alpha  occ. eigenvalues --  -10.14127  -5.26932  -3.62964  -3.62946  -3.62666
 Alpha  occ. eigenvalues --   -0.98170  -0.95635  -0.95458  -0.86555  -0.74648
 Alpha  occ. eigenvalues --   -0.66524  -0.64800  -0.64252  -0.63318  -0.56878
 Alpha  occ. eigenvalues --   -0.49560  -0.47112  -0.45080  -0.44559  -0.44069
 Alpha  occ. eigenvalues --   -0.42791  -0.41734  -0.41405  -0.41062  -0.39915
 Alpha  occ. eigenvalues --   -0.39905  -0.39308  -0.37118  -0.35256  -0.33594
 Alpha  occ. eigenvalues --   -0.31588  -0.30581  -0.29771  -0.27657  -0.26857
 Alpha  occ. eigenvalues --   -0.25588  -0.24751  -0.23724  -0.22860   0.04339
 Alpha virt. eigenvalues --    0.09190   0.09989   0.10306   0.11207   0.13713
 Alpha virt. eigenvalues --    0.14536   0.14788   0.15922   0.16047   0.17453
 Alpha virt. eigenvalues --    0.17754   0.18418   0.19195   0.19886   0.20267

  Beta  occ. eigenvalues --  -66.13181 -19.10091 -19.10023 -19.09840 -14.30127
  Beta  occ. eigenvalues --  -10.19892 -10.19479 -10.19094 -10.18795 -10.16358
  Beta  occ. eigenvalues --  -10.13963  -5.26883  -3.62936  -3.62914  -3.62618
  Beta  occ. eigenvalues --   -0.97830  -0.95310  -0.95146  -0.86530  -0.74558
  Beta  occ. eigenvalues --   -0.66192  -0.64408  -0.63791  -0.63063  -0.56750
  Beta  occ. eigenvalues --   -0.49132  -0.47082  -0.44881  -0.44176  -0.43873
  Beta  occ. eigenvalues --   -0.42596  -0.41566  -0.41185  -0.40800  -0.39737
  Beta  occ. eigenvalues --   -0.39676  -0.39159  -0.37017  -0.35176  -0.33454
  Beta  occ. eigenvalues --   -0.31521  -0.30385  -0.29539  -0.27461  -0.26643
  Beta  occ. eigenvalues --   -0.25371  -0.24531  -0.23540  -0.22840
  Beta virt. eigenvalues --    0.08783   0.09368   0.10768   0.11106   0.12001
  Beta virt. eigenvalues --    0.13942   0.14738   0.15254   0.16236   0.16452
  Beta virt. eigenvalues --    0.17842   0.18090   0.18650   0.19413   0.20060

 Mulliken charges and spin densities:
               1          2
     1  Si   0.614382   0.461462
     2  C   -0.327403  -0.013964
     3  H    0.067017   0.026342
     4  H    0.062171   0.033517
     5  C   -0.165643   0.007703
     6  H    0.079571   0.010962
     7  H    0.081721   0.011936
     8  C   -0.052089   0.004042
     9  H    0.091113   0.000891
    10  H    0.071419   0.000849
    11  N   -0.643678   0.001134
    12  H    0.244698   0.000512
    13  H    0.243872   0.001664
    14  O   -0.528871  -0.030573
    15  O   -0.533803  -0.029071
    16  O   -0.536545  -0.027579
    17  C   -0.070629   0.067558
    18  H    0.071126   0.009951
    19  H    0.042702   0.048686
    20  H    0.064181   0.016040
    21  C    0.004099   0.028261
    22  H    0.028864   0.042429
    23  H   -0.000899   0.080162
    24  H   -0.004683   0.085928
    25  C   -0.033302   0.042229
    26  H    0.053207   0.023114
    27  H    0.017953   0.068575
    28  H    0.059449   0.027241
 Sum of Mulliken charges =  -1.00000   1.00000

 Dipole moment (field-independent basis, Debye):
    X=              4.9817    Y=              1.8195    Z=             -2.2914  Tot=              5.7774
 There are a total of      634042 grid points.
 ElSum from          density=       98.9999629591
 ElSum from atomic densities=       97.9999493153
 Hirshfeld populations at iteration   1 (CA, CB, DipXYZ):
               1          2          3          4          5
     1  Si   6.884115   6.743887   0.041167   0.069440  -0.014423
     2  C    3.101872   3.060492   0.095312   0.004983   0.004398
     3  H    0.504229   0.486605   0.023287   0.013807  -0.119484
     4  H    0.505099   0.485703   0.016082   0.113200   0.037348
     5  C    3.040254   3.022807   0.008095   0.031389  -0.026495

 Normal termination of Gaussian 16 at Mon Feb 21 20:08:17 2022.
