 Gaussian 09, Revision A.02,
 Gaussian 09:  EM64L-G09RevA.02 11-Jun-2009

 ----------------------------------------------------------------------
 #p opt=tight freq=raman b3lyp/6-31g(d,p) scrf=(solvent=ethanol) pop=fu
 ll # density gfinput iop(6/7=3) test units=(ang,deg)
 ----------------------------------------------------------------------

 -------------------
 Title Card Required
 -------------------
 Symbolic Z-matrix:
 Charge =  0 Multiplicity = 1

 SCF Done:  E(RB3LYP) =  -691.035271186     A.U. after   11 cycles
 SCF Done:  E(RB3LYP) =  -691.035271344     A.U. after    6 cycles
 SCF Done:  E(RB3LYP) =  -691.035271403     A.U. after    6 cycles
 SCF Done:  E(RB3LYP) =  -691.035271416     A.U. after    5 cycles
 SCF Done:  E(RB3LYP) =  -691.035271424     A.U. after    5 cycles
 SCF Done:  E(RB3LYP) =  -691.035271425     A.U. after    5 cycles
 SCF Done:  E(RB3LYP) =  -691.035271423     A.U. after    5 cycles
 SCF Done:  E(RB3LYP) =  -691.035271422     A.U. after    4 cycles
 SCF Done:  E(RB3LYP) =  -691.035271420     A.U. after    4 cycles
 SCF Done:  E(RB3LYP) =  -691.035271419     A.U. after    4 cycles
 SCF Done:  E(RB3LYP) =  -691.035271418     A.U. after    4 cycles
 SCF Done:  E(RB3LYP) =  -691.035271419     A.U. after    4 cycles
 SCF Done:  E(RB3LYP) =  -691.035271419     A.U. after    4 cycles
 Optimization completed.
    -- Stationary point found.
 Normal termination of Gaussian 09 at Wed Dec  1 05:15:51 2021.

 ----------------------------------------------------------------------
 #P Geom=AllCheck Guess=TCheck SCRF=Check Test GenChk RB3LYP/6-31G(d,p)
  Freq
 ----------------------------------------------------------------------

 Title Card Required
 -------------------
 Redundant internal coordinates taken from checkpoint file:
 /store/rheinheimer/2738630/Gau-12774.chk
 Charge =  0 Multiplicity = 1

                         Standard orientation:
 ---------------------------------------------------------------------
 Center     Atomic      Atomic             Coordinates (Angstroms)
 Number     Number       Type             X           Y           Z
 ---------------------------------------------------------------------
      1         14           0       -1.411592    0.010132   -0.000481
      2          6           0        0.270616    0.819598   -0.029561
      3          1           0        0.331058    1.433277   -0.938514
      4          1           0        0.331285    1.525961    0.810266
      5          6           0        1.455418   -0.161975    0.024273
      6          1           0        1.390015   -0.860986   -0.821282
      7          1           0        1.402767   -0.772998    0.933613
      8          6           0        2.814420    0.540807   -0.015780
      9          1           0        2.897448    1.211002    0.849309
     10          1           0        2.856282    1.183382   -0.912750
     11          7           0        3.912380   -0.434860    0.062213
     12          1           0        3.924473   -0.984490   -0.796101
     13          1           0        4.800532    0.063344    0.069925
     14          8           0       -1.654781   -0.901062    1.371076
     15          1           0       -1.350879   -0.498975    2.194774
     16          8           0       -1.664975   -1.045195   -1.257105
     17          1           0       -1.434224   -1.964332   -1.074411
     18          8           0       -2.503524    1.246259   -0.164032
     19          1           0       -3.429609    0.976395   -0.216702
 ---------------------------------------------------------------------

 SCF Done:  E(RB3LYP) =  -691.035271419     A.U. after    1 cycles

 The electronic state is 1-A.
 Alpha  occ. eigenvalues --  -66.17926 -19.14893 -19.14800 -19.14680 -14.30896
 Alpha  occ. eigenvalues --  -10.20179 -10.18205 -10.16970  -5.31654  -3.67682
 Alpha  occ. eigenvalues --   -3.67670  -3.67408  -1.01571  -0.98786  -0.98507
 Alpha  occ. eigenvalues --   -0.87387  -0.76407  -0.65768  -0.58653  -0.55842
 Alpha  occ. eigenvalues --   -0.51380  -0.50280  -0.48115  -0.45621  -0.43396
 Alpha  occ. eigenvalues --   -0.41346  -0.38811  -0.37832  -0.36369  -0.35922
 Alpha  occ. eigenvalues --   -0.35044  -0.33732  -0.32946  -0.32509  -0.30919
 Alpha  occ. eigenvalues --   -0.29071  -0.23640
 Alpha virt. eigenvalues --    0.04371   0.07639   0.08017   0.09123   0.11320
 Alpha virt. eigenvalues --    0.13129   0.14614   0.14927   0.16149   0.17069
 Alpha virt. eigenvalues --    0.18258   0.19106   0.20929   0.21077   0.21781

 Mulliken atomic charges:
              1
     1  Si   0.978308
     2  C   -0.406788
     3  H    0.124368
     4  H    0.122705
     5  C   -0.178173
     6  H    0.101775
     7  H    0.103962
     8  C   -0.051949
     9  H    0.101123
    10  H    0.082087
    11  N   -0.643313
    12  H    0.249043
    13  H    0.251179
    14  O   -0.628468
    15  H    0.342528
    16  O   -0.624333
    17  H    0.344254
    18  O   -0.616143
    19  H    0.347835
 Sum of Mulliken atomic charges =   0.00000

 Dipole moment (field-independent basis, Debye):
    X=              1.1749    Y=              0.0963    Z=              0.5451  Tot=              1.2988
 Quadrupole moment (field-independent basis, Debye-Ang):
   XX=            -49.4954   YY=            -56.4410   ZZ=            -54.0789
   XY=              3.4742   XZ=             -7.2636   YZ=              4.0293

  Exact polarizability:  91.326  -1.680  78.087   0.743   2.358  75.471
 Approx polarizability:  89.699  -1.556  87.852   1.781   2.252  85.637

                     1                      2                      3
                     A                      A                      A
 Frequencies --    37.4252                71.8179                88.5378
 Red. masses --     3.3976                 1.9225                 5.1368
 Frc consts  --     0.0028                 0.0058                 0.0237
 IR Inten    --     3.8014                13.0861                 0.0587
 Raman Activ --     0.3047                 0.4764                 0.1071

                     4                      5                      6
                     A                      A                      A
 Frequencies --   129.2029               144.3022               192.1580
 Red. masses --     2.4356                 1.4335                 1.4209
 Frc consts  --     0.0240                 0.0176                 0.0309
 IR Inten    --     2.4702               186.5658                34.9845
 Raman Activ --     0.2771                 1.3441                 3.5793

                     7                      8                      9
                     A                      A                      A
 Frequencies --   225.3230               232.1520               251.0139
 Red. masses --     2.3710                 1.2301                 2.7056
 Frc consts  --     0.0709                 0.0391                 0.1004
 IR Inten    --     5.7052                63.9659                57.4788
 Raman Activ --     1.2935                 1.1645                 3.2432

                    10                     11                     12
                     A                      A                      A
 Frequencies --   263.9269               273.7145               323.3205
 Red. masses --     1.5154                 1.7170                 3.6656
 Frc consts  --     0.0622                 0.0758                 0.2258
 IR Inten    --    69.5127                82.2397                31.8328
 Raman Activ --     2.5754                 1.1644                 2.9641

                    13                     14                     15
                     A                      A                      A
 Frequencies --   357.0956               401.5186               449.9276
 Red. masses --     3.2455                 5.7510                 3.5815
 Frc consts  --     0.2438                 0.5463                 0.4272
 IR Inten    --   142.6859               115.7333                19.4682
 Raman Activ --     1.1800                 4.0387                 1.8942

                    16                     17                     18
                     A                      A                      A
 Frequencies --   695.8621               703.4457               799.3332
 Red. masses --     3.9058                 1.2263                 1.3907
 Frc consts  --     1.1143                 0.3575                 0.5235
 IR Inten    --     1.2723                21.5593                28.2948
 Raman Activ --    17.7717                 1.8717                 2.8494

                    19                     20                     21
                     A                      A                      A
 Frequencies --   805.8545               829.0371               835.8334
 Red. masses --     2.2463                 1.9592                 1.5668
 Frc consts  --     0.8595                 0.7934                 0.6449
 IR Inten    --   157.9509               337.4106               279.5307
 Raman Activ --     2.1788                 1.4746                 1.9973

                    22                     23                     24
                     A                      A                      A
 Frequencies --   888.4075               904.5621               934.4597
 Red. masses --     1.4523                 1.6063                 1.9100
 Frc consts  --     0.6753                 0.7744                 0.9826
 IR Inten    --    51.4942               332.4397               181.6526
 Raman Activ --     5.4497                 2.4558                 7.9449

                    25                     26                     27
                     A                      A                      A
 Frequencies --   948.1330               974.9514              1023.6536
 Red. masses --     2.8517                 2.2563                 1.7788
 Frc consts  --     1.5104                 1.2636                 1.0982
 IR Inten    --   167.5881                54.2729                23.9986
 Raman Activ --     2.8187                12.0887                 4.2676

                    28                     29                     30
                     A                      A                      A
 Frequencies --  1033.2311              1086.7613              1142.0278
 Red. masses --     2.2819                 2.2576                 1.3068
 Frc consts  --     1.4353                 1.5710                 1.0042
 IR Inten    --    16.3461                 7.7701                18.6184
 Raman Activ --     6.5176                15.3403                 5.4307

                    31                     32                     33
                     A                      A                      A
 Frequencies --  1216.8810              1273.2141              1315.1196
 Red. masses --     1.4166                 1.4269                 1.2405
 Frc consts  --     1.2359                 1.3628                 1.2641
 IR Inten    --    26.4534                 8.2358                10.6790
 Raman Activ --     3.2711                 3.4012                 7.3744

                    34                     35                     36
                     A                      A                      A
 Frequencies --  1335.6859              1368.0182              1433.6005
 Red. masses --     1.0838                 1.3956                 1.4602
 Frc consts  --     1.1392                 1.5388                 1.7682
 IR Inten    --     5.3197                 9.1613                14.2177
 Raman Activ --    44.7881                 2.2856                 6.1055

                    37                     38                     39
                     A                      A                      A
 Frequencies --  1463.0168              1499.5555              1524.9525
 Red. masses --     1.0836                 1.0860                 1.0931
 Frc consts  --     1.3665                 1.4388                 1.4978
 IR Inten    --     7.0612                 1.8124                 2.4117
 Raman Activ --    35.4907                37.3771                 8.8461

                    40                     41                     42
                     A                      A                      A
 Frequencies --  1656.7510              2955.0055              3020.4427
 Red. masses --     1.0877                 1.0722                 1.0629
 Frc consts  --     1.7590                 5.5162                 5.7133
 IR Inten    --    34.5851               115.0092                10.5111
 Raman Activ --    15.6561               210.9654               370.3728

                    43                     44                     45
                     A                      A                      A
 Frequencies --  3027.7738              3048.8456              3061.4008
 Red. masses --     1.0615                 1.0865                 1.0995
 Frc consts  --     5.7336                 5.9505                 6.0716
 IR Inten    --    49.9058                51.3182                 3.9407
 Raman Activ --    36.8524               207.5346               155.8339

                    46                     47                     48
                     A                      A                      A
 Frequencies --  3079.1905              3476.3004              3554.2392
 Red. masses --     1.1023                 1.0510                 1.0912
 Frc consts  --     6.1578                 7.4831                 8.1221
 IR Inten    --   114.7843                 1.6962                 0.1045
 Raman Activ --    13.0527               227.7027               152.3561

                    49                     50                     51
                     A                      A                      A
 Frequencies --  3851.6450              3857.2415              3865.4087
 Red. masses --     1.0661                 1.0663                 1.0664
 Frc consts  --     9.3183                 9.3476                 9.3880
 IR Inten    --    99.4313                90.9276               101.2485
 Raman Activ --   222.2877               151.8402               135.2268

 - Thermochemistry -
 -------------------
 Temperature   298.150 Kelvin.  Pressure   1.00000 Atm.
 Atom     1 has atomic number 14 and mass  27.97693

 Molecular mass:   137.05082 amu.
 Principal axes and moments of inertia in atomic units:
                           1         2         3
     Eigenvalues --   541.971792575.923782638.64545
           X            0.99997   0.00445  -0.00556
           Y           -0.00400   0.99682   0.07956
           Z            0.00589  -0.07953   0.99681
 This molecule is an asymmetric top.
 Rotational symmetry number  1.
 Warning -- assumption of classical behavior for rotation
           may cause significant error
 Rotational temperatures (Kelvin)      0.15981     0.03362     0.03283
 Rotational constants (GHZ):           3.32995     0.70062     0.68397
 Zero-point vibrational energy     406319.3 (Joules/Mol)
                                   97.11264 (Kcal/Mol)
 Warning -- explicit consideration of  15 degrees of freedom as
           vibrations may cause significant error
 Vibrational temperatures:     53.85   103.33   127.39   185.89   207.62
          (Kelvin)            276.47   324.19   334.01   361.15   379.73
                              393.81   465.19   513.78   577.70   647.34
                             1001.19  1012.10  1150.06  1159.44  1192.80
                             1202.58  1278.22  1301.46  1344.48  1364.15
                             1402.74  1472.81  1486.59  1563.61  1643.12
                             1750.82  1831.87  1892.16  1921.75  1968.27
                             2062.63  2104.95  2157.52  2194.06  2383.69
                             4251.59  4345.74  4356.29  4386.60  4404.67
                             4430.26  5001.61  5113.75  5541.65  5549.70
                             5561.45

 Zero-point correction=                           0.154759 (Hartree/Particle)
 Thermal correction to Energy=                    0.166621
 Thermal correction to Enthalpy=                  0.167565
 Thermal correction to Gibbs Free Energy=         0.116807
 Sum of electronic and zero-point Energies=           -690.880513
 Sum of electronic and thermal Energies=              -690.868651
 Sum of electronic and thermal Enthalpies=            -690.867707
 Sum of electronic and thermal Free Energies=         -690.918464

                     E (Thermal)             CV                S
                      KCal/Mol        Cal/Mol-Kelvin    Cal/Mol-Kelvin
 Total                  104.556             41.188            106.829
 Electronic               0.000              0.000              0.000
 Translational            0.889              2.981             40.658
 Rotational               0.889              2.981             29.689
 Vibrational            102.779             35.227             36.482
 Vibration     1          0.594              1.982              5.391
 Vibration     2          0.598              1.967              4.103
 Vibration     3          0.601              1.957              3.692
 Vibration     4          0.612              1.924              2.958
 Vibration     5          0.616              1.909              2.746
 Vibration     6          0.634              1.851              2.207
 Vibration     7          0.650              1.802              1.916
 Vibration     8          0.653              1.792              1.862
 Vibration     9          0.663              1.761              1.723
 Vibration    10          0.670              1.739              1.636
 Vibration    11          0.676              1.722              1.573
 Vibration    12          0.708              1.629              1.293
 Vibration    13          0.732              1.561              1.135
 Vibration    14          0.767              1.467              0.957
 Vibration    15          0.809              1.361              0.796

 Normal termination of Gaussian 09 at Wed Dec  1 05:18:26 2021.
