 Gaussian 16, Revision A.03,
 Gaussian 16:  ES64L-G16RevA.03 25-Dec-2016

 ----------------------------------------------------------------------
 #t B3LYP/6-31G(d,p) # SCRF=(Solvent=ethanol) # Gfinput IOP(6/7=3) Pop=
 hirshfeld Density Test # Units(Ang,Deg)
 ----------------------------------------------------------------------
 ----------------------------
 e-aptms-alc_opt_freq_g09.log
 ----------------------------
 Symbolic Z-matrix:
 Charge =  1 Multiplicity = 2

                         Standard orientation:
 ---------------------------------------------------------------------
 Center     Atomic      Atomic             Coordinates (Angstroms)
 Number     Number       Type             X           Y           Z
 ---------------------------------------------------------------------
      1         14           0       -1.411591    0.010131   -0.000481
      2          6           0        0.270619    0.819601   -0.029561
      3          1           0        0.331060    1.433281   -0.938511
      4          1           0        0.331280    1.525961    0.810269
      5          6           0        1.455419   -0.161980    0.024269
      6          1           0        1.390019   -0.860990   -0.821281
      7          1           0        1.402769   -0.773000    0.933609
      8          6           0        2.814419    0.540810   -0.015781
      9          1           0        2.897449    1.211000    0.849309
     10          1           0        2.856279    1.183380   -0.912751
     11          7           0        3.912379   -0.434861    0.062209
     12          1           0        3.924469   -0.984491   -0.796101
     13          1           0        4.800529    0.063339    0.069929
     14          8           0       -1.654781   -0.901059    1.371079
     15          1           0       -1.350881   -0.498979    2.194769
     16          8           0       -1.664981   -1.045199   -1.257101
     17          1           0       -1.434222   -1.964329   -1.074411
     18          8           0       -2.503521    1.246261   -0.164031
     19          1           0       -3.429611    0.976402   -0.216701
 ---------------------------------------------------------------------

 SCF Done:  E(UB3LYP) =  -690.783639287     A.U. after   17 cycles

 The electronic state is 2-A.
 Alpha  occ. eigenvalues --  -66.19498 -19.15860 -19.15695 -19.15676 -14.51611
 Alpha  occ. eigenvalues --  -10.29248 -10.23080 -10.19639  -5.33182  -3.69198
 Alpha  occ. eigenvalues --   -3.69188  -3.68976  -1.03091  -1.02506  -0.99669
 Alpha  occ. eigenvalues --   -0.99442  -0.82564  -0.72660  -0.64771  -0.60441
 Alpha  occ. eigenvalues --   -0.57934  -0.56455  -0.52298  -0.51720  -0.51180
 Alpha  occ. eigenvalues --   -0.47445  -0.44044  -0.42044  -0.39754  -0.39636
 Alpha  occ. eigenvalues --   -0.38938  -0.37303  -0.36747  -0.34750  -0.33878
 Alpha  occ. eigenvalues --   -0.31799  -0.31357
 Alpha virt. eigenvalues --    0.02755   0.03302   0.06484   0.06961   0.07891
 Alpha virt. eigenvalues --    0.08574   0.10918   0.12133   0.12918   0.13854
 Alpha virt. eigenvalues --    0.14615   0.15582   0.16149   0.18187   0.19422

  Beta  occ. eigenvalues --  -66.19495 -19.15856 -19.15691 -19.15663 -14.49880
  Beta  occ. eigenvalues --  -10.29182 -10.23023 -10.19623  -5.33179  -3.69196
  Beta  occ. eigenvalues --   -3.69186  -3.68968  -1.02489  -0.99738  -0.99658
  Beta  occ. eigenvalues --   -0.99418  -0.81832  -0.71935  -0.64175  -0.59282
  Beta  occ. eigenvalues --   -0.57138  -0.54657  -0.52251  -0.51176  -0.50319
  Beta  occ. eigenvalues --   -0.45248  -0.43193  -0.40019  -0.39510  -0.38899
  Beta  occ. eigenvalues --   -0.37271  -0.36689  -0.34735  -0.33814  -0.31789
  Beta  occ. eigenvalues --   -0.31218
  Beta virt. eigenvalues --   -0.26380   0.03284   0.03545   0.06557   0.07005
  Beta virt. eigenvalues --    0.08568   0.08954   0.11404   0.12570   0.13381
  Beta virt. eigenvalues --    0.14100   0.14847   0.15735   0.16664   0.18293

 Mulliken charges and spin densities:
               1          2
     1  Si   0.998587   0.004082
     2  C   -0.413541   0.013680
     3  H    0.150119   0.000063
     4  H    0.149658   0.000580
     5  C   -0.214398   0.026573
     6  H    0.151236  -0.001582
     7  H    0.165505   0.011849
     8  C   -0.141665   0.008172
     9  H    0.211087   0.011945
    10  H    0.259689   0.116621
    11  N   -0.275685   0.812093
    12  H    0.379018  -0.006817
    13  H    0.384397  -0.005055
    14  O   -0.622312   0.001621
    15  H    0.345893  -0.000042
    16  O   -0.617272   0.004922
    17  H    0.348212  -0.000135
    18  O   -0.612402   0.001196
    19  H    0.353874   0.000233
 Sum of Mulliken charges =   1.00000   1.00000

 Dipole moment (field-independent basis, Debye):
    X=             16.7543    Y=             -0.4735    Z=              0.5794  Tot=             16.7710
 There are a total of      428132 grid points.
 ElSum from          density=       73.0000022407
 ElSum from atomic densities=       74.0000052917
 Hirshfeld populations at iteration   1 (CA, CB, DipXYZ):
               1          2          3          4          5
     1  Si   6.745723   6.740918  -0.024074  -0.008619   0.030921
     2  C    3.068902   3.057555   0.081188   0.024518   0.000711
     3  H    0.475799   0.474056   0.015676   0.093014  -0.130906
     4  H    0.475744   0.474346   0.012627   0.104585   0.121308
     5  C    3.029062   2.998298   0.014139   0.024520   0.000755

 Normal termination of Gaussian 16 at Wed Dec  1 16:19:50 2021.
