 Gaussian 16, Revision A.03,
 Gaussian 16:  ES64L-G16RevA.03 25-Dec-2016

 ----------------------------------------------------------------------
 #t B3LYP/6-31G(d,p) # SCRF=(Solvent=ethanol) # Gfinput IOP(6/7=3) Pop=
 hirshfeld Density Test # Units(Ang,Deg)
 ----------------------------------------------------------------------
 ----------------------------
 e-aptms-alc_opt_freq_g09.log
 ----------------------------
 Symbolic Z-matrix:
 Charge = -1 Multiplicity = 2

                         Standard orientation:
 ---------------------------------------------------------------------
 Center     Atomic      Atomic             Coordinates (Angstroms)
 Number     Number       Type             X           Y           Z
 ---------------------------------------------------------------------
      1         14           0       -1.411591    0.010131   -0.000481
      2          6           0        0.270619    0.819601   -0.029561
      3          1           0        0.331060    1.433281   -0.938511
      4          1           0        0.331280    1.525961    0.810269
      5          6           0        1.455419   -0.161980    0.024269
      6          1           0        1.390019   -0.860990   -0.821281
      7          1           0        1.402769   -0.773000    0.933609
      8          6           0        2.814419    0.540810   -0.015781
      9          1           0        2.897449    1.211000    0.849309
     10          1           0        2.856279    1.183380   -0.912751
     11          7           0        3.912379   -0.434861    0.062209
     12          1           0        3.924469   -0.984491   -0.796101
     13          1           0        4.800529    0.063339    0.069929
     14          8           0       -1.654781   -0.901059    1.371079
     15          1           0       -1.350881   -0.498979    2.194769
     16          8           0       -1.664981   -1.045199   -1.257101
     17          1           0       -1.434222   -1.964329   -1.074411
     18          8           0       -2.503521    1.246261   -0.164031
     19          1           0       -3.429611    0.976402   -0.216701
 ---------------------------------------------------------------------

 SCF Done:  E(UB3LYP) =  -691.004123531     A.U. after   21 cycles

 The electronic state is 2-A.
 Alpha  occ. eigenvalues --  -66.13156 -19.10296 -19.09911 -19.09210 -14.30132
 Alpha  occ. eigenvalues --  -10.19064 -10.16243 -10.13744  -5.26850  -3.62868
 Alpha  occ. eigenvalues --   -3.62860  -3.62605  -0.97150  -0.94577  -0.93827
 Alpha  occ. eigenvalues --   -0.86538  -0.74450  -0.63859  -0.56920  -0.51757
 Alpha  occ. eigenvalues --   -0.47226  -0.46750  -0.46164  -0.44212  -0.41821
 Alpha  occ. eigenvalues --   -0.38629  -0.36180  -0.34598  -0.33298  -0.33073
 Alpha  occ. eigenvalues --   -0.32311  -0.31256  -0.29723  -0.28676  -0.26573
 Alpha  occ. eigenvalues --   -0.25824  -0.22865   0.01811
 Alpha virt. eigenvalues --    0.08706   0.08868   0.09820   0.12224   0.14288
 Alpha virt. eigenvalues --    0.15687   0.16169   0.17961   0.18288   0.19365
 Alpha virt. eigenvalues --    0.20169   0.22045   0.23113   0.23789   0.26142

  Beta  occ. eigenvalues --  -66.13137 -19.10055 -19.09642 -19.08846 -14.30124
  Beta  occ. eigenvalues --  -10.19061 -10.16201 -10.13571  -5.26818  -3.62850
  Beta  occ. eigenvalues --   -3.62843  -3.62578  -0.96541  -0.93978  -0.93075
  Beta  occ. eigenvalues --   -0.86516  -0.74347  -0.63696  -0.56769  -0.51406
  Beta  occ. eigenvalues --   -0.47111  -0.46432  -0.45774  -0.44141  -0.41749
  Beta  occ. eigenvalues --   -0.38465  -0.36061  -0.34256  -0.33079  -0.32876
  Beta  occ. eigenvalues --   -0.31944  -0.31136  -0.29429  -0.28347  -0.26251
  Beta  occ. eigenvalues --   -0.25486  -0.22849
  Beta virt. eigenvalues --    0.07107   0.09389   0.10585   0.10792   0.12968
  Beta virt. eigenvalues --    0.14421   0.16255   0.16644   0.18546   0.18983
  Beta virt. eigenvalues --    0.20044   0.20346   0.22205   0.23957   0.24340

 Mulliken charges and spin densities:
               1          2
     1  Si   0.468505   0.501365
     2  C   -0.337239  -0.004249
     3  H    0.066696   0.025153
     4  H    0.054715   0.036931
     5  C   -0.151489   0.005143
     6  H    0.066567   0.017335
     7  H    0.062300   0.026131
     8  C   -0.053033   0.004285
     9  H    0.090835   0.000884
    10  H    0.071615   0.000257
    11  N   -0.644217   0.001577
    12  H    0.244919   0.000023
    13  H    0.244771   0.000599
    14  O   -0.524955  -0.071513
    15  H    0.066102   0.269192
    16  O   -0.565462  -0.038548
    17  H    0.180386   0.150481
    18  O   -0.565606  -0.031945
    19  H    0.224590   0.106898
 Sum of Mulliken charges =  -1.00000   1.00000

 Dipole moment (field-independent basis, Debye):
    X=              8.2666    Y=              1.4817    Z=             -1.8236  Tot=              8.5940
 There are a total of      428132 grid points.
 ElSum from          density=       75.0000010336
 ElSum from atomic densities=       74.0000052917
 Hirshfeld populations at iteration   1 (CA, CB, DipXYZ):
               1          2          3          4          5
     1  Si   6.941861   6.748873   0.182343   0.068420  -0.085777
     2  C    3.110170   3.060500   0.103153   0.006831  -0.012016
     3  H    0.502755   0.487986   0.014075   0.072494  -0.100497
     4  H    0.511172   0.486506   0.024085   0.083853   0.076276
     5  C    3.045057   3.021836   0.009257   0.043111  -0.013262

 Normal termination of Gaussian 16 at Wed Dec  1 16:19:01 2021.
