 Gaussian 16, Revision A.03,
 Gaussian 16:  ES64L-G16RevA.03 25-Dec-2016

 ----------------------------------------------------------------------
 #p B3LYP/6-31G(d,p) scrf=(solvent=ethanol) # Gfinput IOP(6/7=3) Pop=ch
 elp Density Test
 ----------------------------------------------------------------------

 ----------------------------
 e-aptms-alc_opt_freq_g09.log
 ----------------------------
 Symbolic Z-matrix:
 Charge =  0 Multiplicity = 1

                         Standard orientation:
 ---------------------------------------------------------------------
 Center     Atomic      Atomic             Coordinates (Angstroms)
 Number     Number       Type             X           Y           Z
 ---------------------------------------------------------------------
      1         14           0       -1.411591    0.010131   -0.000481
      2          6           0        0.270619    0.819601   -0.029561
      3          1           0        0.331060    1.433281   -0.938511
      4          1           0        0.331280    1.525961    0.810269
      5          6           0        1.455419   -0.161980    0.024269
      6          1           0        1.390019   -0.860990   -0.821281
      7          1           0        1.402769   -0.773000    0.933609
      8          6           0        2.814419    0.540810   -0.015781
      9          1           0        2.897449    1.211000    0.849309
     10          1           0        2.856279    1.183380   -0.912751
     11          7           0        3.912379   -0.434861    0.062209
     12          1           0        3.924469   -0.984491   -0.796101
     13          1           0        4.800529    0.063339    0.069929
     14          8           0       -1.654781   -0.901059    1.371079
     15          1           0       -1.350881   -0.498979    2.194769
     16          8           0       -1.664981   -1.045199   -1.257101
     17          1           0       -1.434222   -1.964329   -1.074411
     18          8           0       -2.503521    1.246261   -0.164031
     19          1           0       -3.429611    0.976402   -0.216701
 ---------------------------------------------------------------------

 SCF Done:  E(RB3LYP) =  -691.035260109     A.U. after   11 cycles

 The electronic state is 1-A.
 Alpha  occ. eigenvalues --  -66.17926 -19.14892 -19.14800 -19.14680 -14.30896
 Alpha  occ. eigenvalues --  -10.20179 -10.18205 -10.16969  -5.31654  -3.67682
 Alpha  occ. eigenvalues --   -3.67671  -3.67408  -1.01571  -0.98786  -0.98507
 Alpha  occ. eigenvalues --   -0.87387  -0.76407  -0.65768  -0.58653  -0.55842
 Alpha  occ. eigenvalues --   -0.51380  -0.50280  -0.48115  -0.45621  -0.43396
 Alpha  occ. eigenvalues --   -0.41346  -0.38811  -0.37832  -0.36368  -0.35922
 Alpha  occ. eigenvalues --   -0.35044  -0.33732  -0.32946  -0.32509  -0.30919
 Alpha  occ. eigenvalues --   -0.29071  -0.23640
 Alpha virt. eigenvalues --    0.04371   0.07638   0.08017   0.09123   0.11321
 Alpha virt. eigenvalues --    0.13129   0.14614   0.14927   0.16149   0.17068
 Alpha virt. eigenvalues --    0.18258   0.19107   0.20929   0.21077   0.21781

 Mulliken charges:
               1
     1  Si   0.978190
     2  C   -0.406618
     3  H    0.124336
     4  H    0.122683
     5  C   -0.178220
     6  H    0.101783
     7  H    0.103970
     8  C   -0.051955
     9  H    0.101127
    10  H    0.082090
    11  N   -0.643311
    12  H    0.249042
    13  H    0.251177
    14  O   -0.628440
    15  H    0.342533
    16  O   -0.624353
    17  H    0.344261
    18  O   -0.616130
    19  H    0.347836
 Sum of Mulliken charges =  -0.00000

 Dipole moment (field-independent basis, Debye):
    X=              1.1748    Y=              0.0963    Z=              0.5450  Tot=              1.2987
 Quadrupole moment (field-independent basis, Debye-Ang):
   XX=            -49.4949   YY=            -56.4413   ZZ=            -54.0789
   XY=              3.4743   XZ=             -7.2637   YZ=              4.0291

 ESP charges:
               1
     1  Si   1.533850
     2  C   -0.586686
     3  H    0.090307
     4  H    0.076728
     5  C    0.243654
     6  H   -0.070944
     7  H   -0.094488
     8  C    0.599454
     9  H   -0.073808
    10  H   -0.130608
    11  N   -1.037254
    12  H    0.350030
    13  H    0.355018
    14  O   -0.850692
    15  H    0.430687
    16  O   -0.842716
    17  H    0.430331
    18  O   -0.854598
    19  H    0.431733
 Sum of ESP charges =  -0.00000

 Normal termination of Gaussian 16 at Tue Jan 11 15:05:02 2022.
